ITEM: TIMESTEP
0
ITEM: NUMBER OF ATOMS
250
ITEM: BOX BOUNDS pp pp pp
0 25
0 25
0 25
ITEM: ATOMS id type xs ys zs c_peratom 
1 1 0 0 0 -0.0356232 
2 1 0.1 0.1 0.1 -0.0356232 
3 1 0.2 0 0 -0.0356232 
4 1 0.3 0.1 0.1 -0.0356232 
5 1 0.4 0 0 -0.0356232 
6 1 0.5 0.1 0.1 -0.0356232 
7 1 0.6 0 0 -0.0356232 
8 1 0.7 0.1 0.1 -0.0356232 
9 1 0.8 0 0 -0.0356232 
10 1 0.9 0.1 0.1 -0.0356232 
11 1 0 0.2 0 -0.0356232 
13 1 0.2 0.2 0 -0.0356232 
15 1 0.4 0.2 0 -0.0356232 
17 1 0.6 0.2 0 -0.0356232 
19 1 0.8 0.2 0 -0.0356232 
12 1 0.1 0.3 0.1 -0.0356232 
14 1 0.3 0.3 0.1 -0.0356232 
16 1 0.5 0.3 0.1 -0.0356232 
18 1 0.7 0.3 0.1 -0.0356232 
20 1 0.9 0.3 0.1 -0.0356232 
21 1 0 0.4 0 -0.0356232 
23 1 0.2 0.4 0 -0.0356232 
25 1 0.4 0.4 0 -0.0356232 
27 1 0.6 0.4 0 -0.0356232 
29 1 0.8 0.4 0 -0.0356232 
22 1 0.1 0.5 0.1 -0.0356232 
31 1 0 0.6 0 -0.0356232 
33 1 0.2 0.6 0 -0.0356232 
24 1 0.3 0.5 0.1 -0.0356232 
35 1 0.4 0.6 0 -0.0356232 
26 1 0.5 0.5 0.1 -0.0356232 
37 1 0.6 0.6 0 -0.0356232 
28 1 0.7 0.5 0.1 -0.0356232 
39 1 0.8 0.6 0 -0.0356232 
30 1 0.9 0.5 0.1 -0.0356232 
32 1 0.1 0.7 0.1 -0.0356232 
34 1 0.3 0.7 0.1 -0.0356232 
36 1 0.5 0.7 0.1 -0.0356232 
38 1 0.7 0.7 0.1 -0.0356232 
40 1 0.9 0.7 0.1 -0.0356232 
41 1 0 0.8 0 -0.0356232 
43 1 0.2 0.8 0 -0.0356232 
45 1 0.4 0.8 0 -0.0356232 
47 1 0.6 0.8 0 -0.0356232 
49 1 0.8 0.8 0 -0.0356232 
42 1 0.1 0.9 0.1 -0.0356232 
44 1 0.3 0.9 0.1 -0.0356232 
46 1 0.5 0.9 0.1 -0.0356232 
48 1 0.7 0.9 0.1 -0.0356232 
50 1 0.9 0.9 0.1 -0.0356232 
51 1 0 0 0.2 -0.0356232 
53 1 0.2 0 0.2 -0.0356232 
55 1 0.4 0 0.2 -0.0356232 
57 1 0.6 0 0.2 -0.0356232 
59 1 0.8 0 0.2 -0.0356232 
61 1 0 0.2 0.2 -0.0356232 
63 1 0.2 0.2 0.2 -0.0356232 
65 1 0.4 0.2 0.2 -0.0356232 
67 1 0.6 0.2 0.2 -0.0356232 
69 1 0.8 0.2 0.2 -0.0356232 
71 1 0 0.4 0.2 -0.0356232 
73 1 0.2 0.4 0.2 -0.0356232 
75 1 0.4 0.4 0.2 -0.0356232 
77 1 0.6 0.4 0.2 -0.0356232 
79 1 0.8 0.4 0.2 -0.0356232 
81 1 0 0.6 0.2 -0.0356232 
83 1 0.2 0.6 0.2 -0.0356232 
85 1 0.4 0.6 0.2 -0.0356232 
87 1 0.6 0.6 0.2 -0.0356232 
89 1 0.8 0.6 0.2 -0.0356232 
91 1 0 0.8 0.2 -0.0356232 
93 1 0.2 0.8 0.2 -0.0356232 
95 1 0.4 0.8 0.2 -0.0356232 
97 1 0.6 0.8 0.2 -0.0356232 
99 1 0.8 0.8 0.2 -0.0356232 
52 1 0.1 0.1 0.3 -0.0356232 
54 1 0.3 0.1 0.3 -0.0356232 
56 1 0.5 0.1 0.3 -0.0356232 
58 1 0.7 0.1 0.3 -0.0356232 
60 1 0.9 0.1 0.3 -0.0356232 
62 1 0.1 0.3 0.3 -0.0356232 
64 1 0.3 0.3 0.3 -0.0356232 
66 1 0.5 0.3 0.3 -0.0356232 
68 1 0.7 0.3 0.3 -0.0356232 
70 1 0.9 0.3 0.3 -0.0356232 
72 1 0.1 0.5 0.3 -0.0356232 
74 1 0.3 0.5 0.3 -0.0356232 
76 1 0.5 0.5 0.3 -0.0356232 
78 1 0.7 0.5 0.3 -0.0356232 
80 1 0.9 0.5 0.3 -0.0356232 
82 1 0.1 0.7 0.3 -0.0356232 
84 1 0.3 0.7 0.3 -0.0356232 
86 1 0.5 0.7 0.3 -0.0356232 
88 1 0.7 0.7 0.3 -0.0356232 
90 1 0.9 0.7 0.3 -0.0356232 
92 1 0.1 0.9 0.3 -0.0356232 
94 1 0.3 0.9 0.3 -0.0356232 
96 1 0.5 0.9 0.3 -0.0356232 
98 1 0.7 0.9 0.3 -0.0356232 
100 1 0.9 0.9 0.3 -0.0356232 
101 1 0 0 0.4 -0.0356232 
103 1 0.2 0 0.4 -0.0356232 
105 1 0.4 0 0.4 -0.0356232 
107 1 0.6 0 0.4 -0.0356232 
109 1 0.8 0 0.4 -0.0356232 
111 1 0 0.2 0.4 -0.0356232 
113 1 0.2 0.2 0.4 -0.0356232 
115 1 0.4 0.2 0.4 -0.0356232 
117 1 0.6 0.2 0.4 -0.0356232 
119 1 0.8 0.2 0.4 -0.0356232 
121 1 0 0.4 0.4 -0.0356232 
123 1 0.2 0.4 0.4 -0.0356232 
125 1 0.4 0.4 0.4 -0.0356232 
127 1 0.6 0.4 0.4 -0.0356232 
129 1 0.8 0.4 0.4 -0.0356232 
131 1 0 0.6 0.4 -0.0356232 
133 1 0.2 0.6 0.4 -0.0356232 
135 1 0.4 0.6 0.4 -0.0356232 
137 1 0.6 0.6 0.4 -0.0356232 
139 1 0.8 0.6 0.4 -0.0356232 
141 1 0 0.8 0.4 -0.0356232 
143 1 0.2 0.8 0.4 -0.0356232 
145 1 0.4 0.8 0.4 -0.0356232 
147 1 0.6 0.8 0.4 -0.0356232 
149 1 0.8 0.8 0.4 -0.0356232 
102 1 0.1 0.1 0.5 -0.0356232 
151 1 0 0 0.6 -0.0356232 
153 1 0.2 0 0.6 -0.0356232 
104 1 0.3 0.1 0.5 -0.0356232 
155 1 0.4 0 0.6 -0.0356232 
106 1 0.5 0.1 0.5 -0.0356232 
157 1 0.6 0 0.6 -0.0356232 
108 1 0.7 0.1 0.5 -0.0356232 
159 1 0.8 0 0.6 -0.0356232 
110 1 0.9 0.1 0.5 -0.0356232 
161 1 0 0.2 0.6 -0.0356232 
163 1 0.2 0.2 0.6 -0.0356232 
165 1 0.4 0.2 0.6 -0.0356232 
167 1 0.6 0.2 0.6 -0.0356232 
169 1 0.8 0.2 0.6 -0.0356232 
112 1 0.1 0.3 0.5 -0.0356232 
114 1 0.3 0.3 0.5 -0.0356232 
116 1 0.5 0.3 0.5 -0.0356232 
118 1 0.7 0.3 0.5 -0.0356232 
120 1 0.9 0.3 0.5 -0.0356232 
171 1 0 0.4 0.6 -0.0356232 
173 1 0.2 0.4 0.6 -0.0356232 
175 1 0.4 0.4 0.6 -0.0356232 
177 1 0.6 0.4 0.6 -0.0356232 
179 1 0.8 0.4 0.6 -0.0356232 
122 1 0.1 0.5 0.5 -0.0356232 
181 1 0 0.6 0.6 -0.0356232 
183 1 0.2 0.6 0.6 -0.0356232 
124 1 0.3 0.5 0.5 -0.0356232 
185 1 0.4 0.6 0.6 -0.0356232 
126 1 0.5 0.5 0.5 -0.0356232 
187 1 0.6 0.6 0.6 -0.0356232 
128 1 0.7 0.5 0.5 -0.0356232 
189 1 0.8 0.6 0.6 -0.0356232 
130 1 0.9 0.5 0.5 -0.0356232 
132 1 0.1 0.7 0.5 -0.0356232 
134 1 0.3 0.7 0.5 -0.0356232 
136 1 0.5 0.7 0.5 -0.0356232 
138 1 0.7 0.7 0.5 -0.0356232 
140 1 0.9 0.7 0.5 -0.0356232 
191 1 0 0.8 0.6 -0.0356232 
193 1 0.2 0.8 0.6 -0.0356232 
195 1 0.4 0.8 0.6 -0.0356232 
197 1 0.6 0.8 0.6 -0.0356232 
199 1 0.8 0.8 0.6 -0.0356232 
142 1 0.1 0.9 0.5 -0.0356232 
144 1 0.3 0.9 0.5 -0.0356232 
146 1 0.5 0.9 0.5 -0.0356232 
148 1 0.7 0.9 0.5 -0.0356232 
150 1 0.9 0.9 0.5 -0.0356232 
152 1 0.1 0.1 0.7 -0.0356232 
154 1 0.3 0.1 0.7 -0.0356232 
156 1 0.5 0.1 0.7 -0.0356232 
158 1 0.7 0.1 0.7 -0.0356232 
160 1 0.9 0.1 0.7 -0.0356232 
162 1 0.1 0.3 0.7 -0.0356232 
164 1 0.3 0.3 0.7 -0.0356232 
166 1 0.5 0.3 0.7 -0.0356232 
168 1 0.7 0.3 0.7 -0.0356232 
170 1 0.9 0.3 0.7 -0.0356232 
172 1 0.1 0.5 0.7 -0.0356232 
174 1 0.3 0.5 0.7 -0.0356232 
176 1 0.5 0.5 0.7 -0.0356232 
178 1 0.7 0.5 0.7 -0.0356232 
180 1 0.9 0.5 0.7 -0.0356232 
182 1 0.1 0.7 0.7 -0.0356232 
184 1 0.3 0.7 0.7 -0.0356232 
186 1 0.5 0.7 0.7 -0.0356232 
188 1 0.7 0.7 0.7 -0.0356232 
190 1 0.9 0.7 0.7 -0.0356232 
192 1 0.1 0.9 0.7 -0.0356232 
194 1 0.3 0.9 0.7 -0.0356232 
196 1 0.5 0.9 0.7 -0.0356232 
198 1 0.7 0.9 0.7 -0.0356232 
200 1 0.9 0.9 0.7 -0.0356232 
201 1 0 0 0.8 -0.0356232 
203 1 0.2 0 0.8 -0.0356232 
205 1 0.4 0 0.8 -0.0356232 
207 1 0.6 0 0.8 -0.0356232 
209 1 0.8 0 0.8 -0.0356232 
211 1 0 0.2 0.8 -0.0356232 
213 1 0.2 0.2 0.8 -0.0356232 
215 1 0.4 0.2 0.8 -0.0356232 
217 1 0.6 0.2 0.8 -0.0356232 
219 1 0.8 0.2 0.8 -0.0356232 
221 1 0 0.4 0.8 -0.0356232 
223 1 0.2 0.4 0.8 -0.0356232 
225 1 0.4 0.4 0.8 -0.0356232 
227 1 0.6 0.4 0.8 -0.0356232 
229 1 0.8 0.4 0.8 -0.0356232 
231 1 0 0.6 0.8 -0.0356232 
233 1 0.2 0.6 0.8 -0.0356232 
235 1 0.4 0.6 0.8 -0.0356232 
237 1 0.6 0.6 0.8 -0.0356232 
239 1 0.8 0.6 0.8 -0.0356232 
241 1 0 0.8 0.8 -0.0356232 
243 1 0.2 0.8 0.8 -0.0356232 
245 1 0.4 0.8 0.8 -0.0356232 
247 1 0.6 0.8 0.8 -0.0356232 
249 1 0.8 0.8 0.8 -0.0356232 
202 1 0.1 0.1 0.9 -0.0356232 
204 1 0.3 0.1 0.9 -0.0356232 
206 1 0.5 0.1 0.9 -0.0356232 
208 1 0.7 0.1 0.9 -0.0356232 
210 1 0.9 0.1 0.9 -0.0356232 
212 1 0.1 0.3 0.9 -0.0356232 
214 1 0.3 0.3 0.9 -0.0356232 
216 1 0.5 0.3 0.9 -0.0356232 
218 1 0.7 0.3 0.9 -0.0356232 
220 1 0.9 0.3 0.9 -0.0356232 
222 1 0.1 0.5 0.9 -0.0356232 
224 1 0.3 0.5 0.9 -0.0356232 
226 1 0.5 0.5 0.9 -0.0356232 
228 1 0.7 0.5 0.9 -0.0356232 
230 1 0.9 0.5 0.9 -0.0356232 
232 1 0.1 0.7 0.9 -0.0356232 
234 1 0.3 0.7 0.9 -0.0356232 
236 1 0.5 0.7 0.9 -0.0356232 
238 1 0.7 0.7 0.9 -0.0356232 
240 1 0.9 0.7 0.9 -0.0356232 
242 1 0.1 0.9 0.9 -0.0356232 
244 1 0.3 0.9 0.9 -0.0356232 
246 1 0.5 0.9 0.9 -0.0356232 
248 1 0.7 0.9 0.9 -0.0356232 
250 1 0.9 0.9 0.9 -0.0356232 
ITEM: TIMESTEP
1
ITEM: NUMBER OF ATOMS
250
ITEM: BOX BOUNDS pp pp pp
0 25
0 25
0 25
ITEM: ATOMS id type xs ys zs c_peratom 
1 1 0 0 0 -0.0356232 
2 1 0.1 0.1 0.1 -0.0356232 
3 1 0.2 0 0 -0.0356232 
4 1 0.3 0.1 0.1 -0.0356232 
5 1 0.4 0 0 -0.0356232 
6 1 0.5 0.1 0.1 -0.0356232 
7 1 0.6 0 0 -0.0356232 
8 1 0.7 0.1 0.1 -0.0356232 
9 1 0.8 0 0 -0.0356232 
10 1 0.9 0.1 0.1 -0.0356232 
11 1 0 0.2 0 -0.0356232 
13 1 0.2 0.2 0 -0.0356232 
15 1 0.4 0.2 0 -0.0356232 
17 1 0.6 0.2 0 -0.0356232 
19 1 0.8 0.2 0 -0.0356232 
12 1 0.1 0.3 0.1 -0.0356232 
14 1 0.3 0.3 0.1 -0.0356232 
16 1 0.5 0.3 0.1 -0.0356232 
18 1 0.7 0.3 0.1 -0.0356232 
20 1 0.9 0.3 0.1 -0.0356232 
21 1 0 0.4 0 -0.0356232 
23 1 0.2 0.4 0 -0.0356232 
25 1 0.4 0.4 0 -0.0356232 
27 1 0.6 0.4 0 -0.0356232 
29 1 0.8 0.4 0 -0.0356232 
22 1 0.1 0.5 0.1 -0.0356232 
31 1 0 0.6 0 -0.0356232 
33 1 0.2 0.6 0 -0.0356232 
24 1 0.3 0.5 0.1 -0.0356232 
35 1 0.4 0.6 0 -0.0356232 
26 1 0.5 0.5 0.1 -0.0356232 
37 1 0.6 0.6 0 -0.0356232 
28 1 0.7 0.5 0.1 -0.0356232 
39 1 0.8 0.6 0 -0.0356232 
30 1 0.9 0.5 0.1 -0.0356232 
32 1 0.1 0.7 0.1 -0.0356232 
34 1 0.3 0.7 0.1 -0.0356232 
36 1 0.5 0.7 0.1 -0.0356232 
38 1 0.7 0.7 0.1 -0.0356232 
40 1 0.9 0.7 0.1 -0.0356232 
41 1 0 0.8 0 -0.0356232 
43 1 0.2 0.8 0 -0.0356232 
45 1 0.4 0.8 0 -0.0356232 
47 1 0.6 0.8 0 -0.0356232 
49 1 0.8 0.8 0 -0.0356232 
42 1 0.1 0.9 0.1 -0.0356232 
44 1 0.3 0.9 0.1 -0.0356232 
46 1 0.5 0.9 0.1 -0.0356232 
48 1 0.7 0.9 0.1 -0.0356232 
50 1 0.9 0.9 0.1 -0.0356232 
51 1 0 0 0.2 -0.0356232 
53 1 0.2 0 0.2 -0.0356232 
55 1 0.4 0 0.2 -0.0356232 
57 1 0.6 0 0.2 -0.0356232 
59 1 0.8 0 0.2 -0.0356232 
61 1 0 0.2 0.2 -0.0356232 
63 1 0.2 0.2 0.2 -0.0356232 
65 1 0.4 0.2 0.2 -0.0356232 
67 1 0.6 0.2 0.2 -0.0356232 
69 1 0.8 0.2 0.2 -0.0356232 
71 1 0 0.4 0.2 -0.0356232 
73 1 0.2 0.4 0.2 -0.0356232 
75 1 0.4 0.4 0.2 -0.0356232 
77 1 0.6 0.4 0.2 -0.0356232 
79 1 0.8 0.4 0.2 -0.0356232 
81 1 0 0.6 0.2 -0.0356232 
83 1 0.2 0.6 0.2 -0.0356232 
85 1 0.4 0.6 0.2 -0.0356232 
87 1 0.6 0.6 0.2 -0.0356232 
89 1 0.8 0.6 0.2 -0.0356232 
91 1 0 0.8 0.2 -0.0356232 
93 1 0.2 0.8 0.2 -0.0356232 
95 1 0.4 0.8 0.2 -0.0356232 
97 1 0.6 0.8 0.2 -0.0356232 
99 1 0.8 0.8 0.2 -0.0356232 
52 1 0.1 0.1 0.3 -0.0356232 
54 1 0.3 0.1 0.3 -0.0356232 
56 1 0.5 0.1 0.3 -0.0356232 
58 1 0.7 0.1 0.3 -0.0356232 
60 1 0.9 0.1 0.3 -0.0356232 
62 1 0.1 0.3 0.3 -0.0356232 
64 1 0.3 0.3 0.3 -0.0356232 
66 1 0.5 0.3 0.3 -0.0356232 
68 1 0.7 0.3 0.3 -0.0356232 
70 1 0.9 0.3 0.3 -0.0356232 
72 1 0.1 0.5 0.3 -0.0356232 
74 1 0.3 0.5 0.3 -0.0356232 
76 1 0.5 0.5 0.3 -0.0356232 
78 1 0.7 0.5 0.3 -0.0356232 
80 1 0.9 0.5 0.3 -0.0356232 
82 1 0.1 0.7 0.3 -0.0356232 
84 1 0.3 0.7 0.3 -0.0356232 
86 1 0.5 0.7 0.3 -0.0356232 
88 1 0.7 0.7 0.3 -0.0356232 
90 1 0.9 0.7 0.3 -0.0356232 
92 1 0.1 0.9 0.3 -0.0356232 
94 1 0.3 0.9 0.3 -0.0356232 
96 1 0.5 0.9 0.3 -0.0356232 
98 1 0.7 0.9 0.3 -0.0356232 
100 1 0.9 0.9 0.3 -0.0356232 
101 1 0 0 0.4 -0.0356232 
103 1 0.2 0 0.4 -0.0356232 
105 1 0.4 0 0.4 -0.0356232 
107 1 0.6 0 0.4 -0.0356232 
109 1 0.8 0 0.4 -0.0356232 
111 1 0 0.2 0.4 -0.0356232 
113 1 0.2 0.2 0.4 -0.0356232 
115 1 0.4 0.2 0.4 -0.0356232 
117 1 0.6 0.2 0.4 -0.0356232 
119 1 0.8 0.2 0.4 -0.0356232 
121 1 0 0.4 0.4 -0.0356232 
123 1 0.2 0.4 0.4 -0.0356232 
125 1 0.4 0.4 0.4 -0.0356232 
127 1 0.6 0.4 0.4 -0.0356232 
129 1 0.8 0.4 0.4 -0.0356232 
131 1 0 0.6 0.4 -0.0356232 
133 1 0.2 0.6 0.4 -0.0356232 
135 1 0.4 0.6 0.4 -0.0356232 
137 1 0.6 0.6 0.4 -0.0356232 
139 1 0.8 0.6 0.4 -0.0356232 
141 1 0 0.8 0.4 -0.0356232 
143 1 0.2 0.8 0.4 -0.0356232 
145 1 0.4 0.8 0.4 -0.0356232 
147 1 0.6 0.8 0.4 -0.0356232 
149 1 0.8 0.8 0.4 -0.0356232 
102 1 0.1 0.1 0.5 -0.0356232 
151 1 0 0 0.6 -0.0356232 
153 1 0.2 0 0.6 -0.0356232 
104 1 0.3 0.1 0.5 -0.0356232 
155 1 0.4 0 0.6 -0.0356232 
106 1 0.5 0.1 0.5 -0.0356232 
157 1 0.6 0 0.6 -0.0356232 
108 1 0.7 0.1 0.5 -0.0356232 
159 1 0.8 0 0.6 -0.0356232 
110 1 0.9 0.1 0.5 -0.0356232 
161 1 0 0.2 0.6 -0.0356232 
163 1 0.2 0.2 0.6 -0.0356232 
165 1 0.4 0.2 0.6 -0.0356232 
167 1 0.6 0.2 0.6 -0.0356232 
169 1 0.8 0.2 0.6 -0.0356232 
112 1 0.1 0.3 0.5 -0.0356232 
114 1 0.3 0.3 0.5 -0.0356232 
116 1 0.5 0.3 0.5 -0.0356232 
118 1 0.7 0.3 0.5 -0.0356232 
120 1 0.9 0.3 0.5 -0.0356232 
171 1 0 0.4 0.6 -0.0356232 
173 1 0.2 0.4 0.6 -0.0356232 
175 1 0.4 0.4 0.6 -0.0356232 
177 1 0.6 0.4 0.6 -0.0356232 
179 1 0.8 0.4 0.6 -0.0356232 
122 1 0.1 0.5 0.5 -0.0356232 
181 1 0 0.6 0.6 -0.0356232 
183 1 0.2 0.6 0.6 -0.0356232 
124 1 0.3 0.5 0.5 -0.0356232 
185 1 0.4 0.6 0.6 -0.0356232 
126 1 0.5 0.5 0.5 -0.0356232 
187 1 0.6 0.6 0.6 -0.0356232 
128 1 0.7 0.5 0.5 -0.0356232 
189 1 0.8 0.6 0.6 -0.0356232 
130 1 0.9 0.5 0.5 -0.0356232 
132 1 0.1 0.7 0.5 -0.0356232 
134 1 0.3 0.7 0.5 -0.0356232 
136 1 0.5 0.7 0.5 -0.0356232 
138 1 0.7 0.7 0.5 -0.0356232 
140 1 0.9 0.7 0.5 -0.0356232 
191 1 0 0.8 0.6 -0.0356232 
193 1 0.2 0.8 0.6 -0.0356232 
195 1 0.4 0.8 0.6 -0.0356232 
197 1 0.6 0.8 0.6 -0.0356232 
199 1 0.8 0.8 0.6 -0.0356232 
142 1 0.1 0.9 0.5 -0.0356232 
144 1 0.3 0.9 0.5 -0.0356232 
146 1 0.5 0.9 0.5 -0.0356232 
148 1 0.7 0.9 0.5 -0.0356232 
150 1 0.9 0.9 0.5 -0.0356232 
152 1 0.1 0.1 0.7 -0.0356232 
154 1 0.3 0.1 0.7 -0.0356232 
156 1 0.5 0.1 0.7 -0.0356232 
158 1 0.7 0.1 0.7 -0.0356232 
160 1 0.9 0.1 0.7 -0.0356232 
162 1 0.1 0.3 0.7 -0.0356232 
164 1 0.3 0.3 0.7 -0.0356232 
166 1 0.5 0.3 0.7 -0.0356232 
168 1 0.7 0.3 0.7 -0.0356232 
170 1 0.9 0.3 0.7 -0.0356232 
172 1 0.1 0.5 0.7 -0.0356232 
174 1 0.3 0.5 0.7 -0.0356232 
176 1 0.5 0.5 0.7 -0.0356232 
178 1 0.7 0.5 0.7 -0.0356232 
180 1 0.9 0.5 0.7 -0.0356232 
182 1 0.1 0.7 0.7 -0.0356232 
184 1 0.3 0.7 0.7 -0.0356232 
186 1 0.5 0.7 0.7 -0.0356232 
188 1 0.7 0.7 0.7 -0.0356232 
190 1 0.9 0.7 0.7 -0.0356232 
192 1 0.1 0.9 0.7 -0.0356232 
194 1 0.3 0.9 0.7 -0.0356232 
196 1 0.5 0.9 0.7 -0.0356232 
198 1 0.7 0.9 0.7 -0.0356232 
200 1 0.9 0.9 0.7 -0.0356232 
201 1 0 0 0.8 -0.0356232 
203 1 0.2 0 0.8 -0.0356232 
205 1 0.4 0 0.8 -0.0356232 
207 1 0.6 0 0.8 -0.0356232 
209 1 0.8 0 0.8 -0.0356232 
211 1 0 0.2 0.8 -0.0356232 
213 1 0.2 0.2 0.8 -0.0356232 
215 1 0.4 0.2 0.8 -0.0356232 
217 1 0.6 0.2 0.8 -0.0356232 
219 1 0.8 0.2 0.8 -0.0356232 
221 1 0 0.4 0.8 -0.0356232 
223 1 0.2 0.4 0.8 -0.0356232 
225 1 0.4 0.4 0.8 -0.0356232 
227 1 0.6 0.4 0.8 -0.0356232 
229 1 0.8 0.4 0.8 -0.0356232 
231 1 0 0.6 0.8 -0.0356232 
233 1 0.2 0.6 0.8 -0.0356232 
235 1 0.4 0.6 0.8 -0.0356232 
237 1 0.6 0.6 0.8 -0.0356232 
239 1 0.8 0.6 0.8 -0.0356232 
241 1 0 0.8 0.8 -0.0356232 
243 1 0.2 0.8 0.8 -0.0356232 
245 1 0.4 0.8 0.8 -0.0356232 
247 1 0.6 0.8 0.8 -0.0356232 
249 1 0.8 0.8 0.8 -0.0356232 
202 1 0.1 0.1 0.9 -0.0356232 
204 1 0.3 0.1 0.9 -0.0356232 
206 1 0.5 0.1 0.9 -0.0356232 
208 1 0.7 0.1 0.9 -0.0356232 
210 1 0.9 0.1 0.9 -0.0356232 
212 1 0.1 0.3 0.9 -0.0356232 
214 1 0.3 0.3 0.9 -0.0356232 
216 1 0.5 0.3 0.9 -0.0356232 
218 1 0.7 0.3 0.9 -0.0356232 
220 1 0.9 0.3 0.9 -0.0356232 
222 1 0.1 0.5 0.9 -0.0356232 
224 1 0.3 0.5 0.9 -0.0356232 
226 1 0.5 0.5 0.9 -0.0356232 
228 1 0.7 0.5 0.9 -0.0356232 
230 1 0.9 0.5 0.9 -0.0356232 
232 1 0.1 0.7 0.9 -0.0356232 
234 1 0.3 0.7 0.9 -0.0356232 
236 1 0.5 0.7 0.9 -0.0356232 
238 1 0.7 0.7 0.9 -0.0356232 
240 1 0.9 0.7 0.9 -0.0356232 
242 1 0.1 0.9 0.9 -0.0356232 
244 1 0.3 0.9 0.9 -0.0356232 
246 1 0.5 0.9 0.9 -0.0356232 
248 1 0.7 0.9 0.9 -0.0356232 
250 1 0.9 0.9 0.9 -0.0356232 
