LAMMPS (11 Nov 2013)
WARNING: OMP_NUM_THREADS environment is not set. (../comm.cpp:100)
  using 1 OpenMP thread(s) per MPI task
# This input file is used to calculate the lattice constant of bcc Fe
# E. Mansouri
# KTH, Nuclear Engineering
# ebrman@kth.se

# ------------------ Initial parameter defenition --------------------

units           metal
boundary        p p p
atom_style      atomic

# ----------------- variable setting -----------------------------------

variable        k loop 200              # define the number of loop
variable        a equal 1.0+0.02*$k   # define the various lattice constant “a”
variable        a equal 1.0+0.02*1   

# ----------------- Bcc Fe supercell setting ---------------------------

lattice         bcc $a
lattice         bcc 1.0200000000000000178
Lattice spacing in x,y,z = 1.02 1.02 1.02
region          box block 0 5 0 5 0 5
create_box      1 box
Created orthogonal box = (0 0 0) to (5.1 5.1 5.1)
  1 by 1 by 1 MPI processor grid
create_atoms    1 box
Created 250 atoms

# ----------------- Define Interatomic Potential ---------------------

pair_style hybrid/overlay eam/alloy eam/fs
pair_coeff * * eam/alloy ../../potentials/FeCr_d.eam.alloy Fe
pair_coeff * * eam/fs ../../potentials/FeCr_s.eam.fs Fe

neighbor 0.3 bin
neigh_modify  delay 1

# ------------------- Calculated properties setting---------------------------

compute peratom all pe/atom
compute eatoms all reduce sum c_peratom
compute csym all centro/atom bcc

# ------------------- Thermal properties output ------------------------------

timestep        0.001
thermo 10
thermo_style custom step pe c_eatoms
dump 1 all custom 200 dump.bcc.Fe id type xs ys zs c_peratom

# ------------------- Minimize the total energy ------------------------------

min_style  cg
minimize   1.0e-20 1.0e-20 1 1
WARNING: Resetting reneighboring criteria during minimization (../min.cpp:173)
Memory usage per processor = 5.4889 Mbytes
Step PotEng eatoms 
       0    273960.89    273960.89 
       1    273960.89    273960.89 
Loop time of 0.069011 on 1 procs (1 MPI x 1 OpenMP) for 1 steps with 250 atoms

Minimization stats:
  Stopping criterion = max force evaluations
  Energy initial, next-to-last, final = 
         273960.889799      273960.889799      273960.889799
  Force two-norm initial, final = 7.38633e-11 9.25525e-07
  Force max component initial, final = 1.24749e-11 1.39851e-07
  Final line search alpha, max atom move = 1 1.39851e-07
  Iterations, force evaluations = 1 1

Pair  time (%) = 0.068357 (99.0524)
Neigh time (%) = 0 (0)
Comm  time (%) = 8.82149e-05 (0.127827)
Outpt time (%) = 0 (0)
Other time (%) = 0.000565767 (0.819822)

Nlocal:    250 ave 250 max 250 min
Histogram: 1 0 0 0 0 0 0 0 0 0
Nghost:    7221 ave 7221 max 7221 min
Histogram: 1 0 0 0 0 0 0 0 0 0
Neighs:    176250 ave 176250 max 176250 min
Histogram: 1 0 0 0 0 0 0 0 0 0
FullNghs:  0 ave 0 max 0 min
Histogram: 1 0 0 0 0 0 0 0 0 0

Total # of neighbors = 176250
Ave neighs/atom = 705
Neighbor list builds = 0
Dangerous builds = 0
variable   E equal "c_eatoms"
variable   N equal count(all)
variable   E_cohesive equal ${E}/${N}
variable   E_cohesive equal 273960.88979882799322/${N}
variable   E_cohesive equal 273960.88979882799322/250
print "${a}	${E_cohesive}" append lat_param.dat
1.0200000000000000178	1095.843559195312082

# ------------------- Loop:   ----------------------------------

clear
WARNING: OMP_NUM_THREADS environment is not set. (../comm.cpp:100)
  using 1 OpenMP thread(s) per MPI task
next            k
jump            input.rose.Fe
# This input file is used to calculate the lattice constant of bcc Fe
# E. Mansouri
# KTH, Nuclear Engineering
# ebrman@kth.se

# ------------------ Initial parameter defenition --------------------

units           metal
boundary        p p p
atom_style      atomic

# ----------------- variable setting -----------------------------------

variable        k loop 200              # define the number of loop
variable        a equal 1.0+0.02*$k   # define the various lattice constant “a”
variable        a equal 1.0+0.02*2   

# ----------------- Bcc Fe supercell setting ---------------------------

lattice         bcc $a
lattice         bcc 1.0400000000000000355
Lattice spacing in x,y,z = 1.04 1.04 1.04
region          box block 0 5 0 5 0 5
create_box      1 box
Created orthogonal box = (0 0 0) to (5.2 5.2 5.2)
  1 by 1 by 1 MPI processor grid
create_atoms    1 box
Created 250 atoms

# ----------------- Define Interatomic Potential ---------------------

pair_style hybrid/overlay eam/alloy eam/fs
pair_coeff * * eam/alloy ../../potentials/FeCr_d.eam.alloy Fe
pair_coeff * * eam/fs ../../potentials/FeCr_s.eam.fs Fe

neighbor 0.3 bin
neigh_modify  delay 1

# ------------------- Calculated properties setting---------------------------

compute peratom all pe/atom
compute eatoms all reduce sum c_peratom
compute csym all centro/atom bcc

# ------------------- Thermal properties output ------------------------------

timestep        0.001
thermo 10
thermo_style custom step pe c_eatoms
dump 1 all custom 200 dump.bcc.Fe id type xs ys zs c_peratom

# ------------------- Minimize the total energy ------------------------------

min_style  cg
minimize   1.0e-20 1.0e-20 1 1
WARNING: Resetting reneighboring criteria during minimization (../min.cpp:173)
Memory usage per processor = 5.4889 Mbytes
Step PotEng eatoms 
       0    250243.47    250243.47 
       1    250243.47    250243.47 
Loop time of 0.061774 on 1 procs (1 MPI x 1 OpenMP) for 1 steps with 250 atoms

Minimization stats:
  Stopping criterion = max force evaluations
  Energy initial, next-to-last, final = 
         250243.474709      250243.474709      250243.474709
  Force two-norm initial, final = 7.04723e-11 8.98153e-07
  Force max component initial, final = 1.13792e-11 1.42738e-07
  Final line search alpha, max atom move = 1 1.42738e-07
  Iterations, force evaluations = 1 1

Pair  time (%) = 0.0611231 (98.9463)
Neigh time (%) = 0 (0)
Comm  time (%) = 8.70228e-05 (0.140873)
Outpt time (%) = 0 (0)
Other time (%) = 0.00056386 (0.912779)

Nlocal:    250 ave 250 max 250 min
Histogram: 1 0 0 0 0 0 0 0 0 0
Nghost:    7221 ave 7221 max 7221 min
Histogram: 1 0 0 0 0 0 0 0 0 0
Neighs:    161250 ave 161250 max 161250 min
Histogram: 1 0 0 0 0 0 0 0 0 0
FullNghs:  0 ave 0 max 0 min
Histogram: 1 0 0 0 0 0 0 0 0 0

Total # of neighbors = 161250
Ave neighs/atom = 645
Neighbor list builds = 0
Dangerous builds = 0
variable   E equal "c_eatoms"
variable   N equal count(all)
variable   E_cohesive equal ${E}/${N}
variable   E_cohesive equal 250243.47470890113618/${N}
variable   E_cohesive equal 250243.47470890113618/250
print "${a}	${E_cohesive}" append lat_param.dat
1.0400000000000000355	1000.9738988356045866

# ------------------- Loop:   ----------------------------------

clear
WARNING: OMP_NUM_THREADS environment is not set. (../comm.cpp:100)
  using 1 OpenMP thread(s) per MPI task
next            k
jump            input.rose.Fe
# This input file is used to calculate the lattice constant of bcc Fe
# E. Mansouri
# KTH, Nuclear Engineering
# ebrman@kth.se

# ------------------ Initial parameter defenition --------------------

units           metal
boundary        p p p
atom_style      atomic

# ----------------- variable setting -----------------------------------

variable        k loop 200              # define the number of loop
variable        a equal 1.0+0.02*$k   # define the various lattice constant “a”
variable        a equal 1.0+0.02*3   

# ----------------- Bcc Fe supercell setting ---------------------------

lattice         bcc $a
lattice         bcc 1.0600000000000000533
Lattice spacing in x,y,z = 1.06 1.06 1.06
region          box block 0 5 0 5 0 5
create_box      1 box
Created orthogonal box = (0 0 0) to (5.3 5.3 5.3)
  1 by 1 by 1 MPI processor grid
create_atoms    1 box
Created 250 atoms

# ----------------- Define Interatomic Potential ---------------------

pair_style hybrid/overlay eam/alloy eam/fs
pair_coeff * * eam/alloy ../../potentials/FeCr_d.eam.alloy Fe
pair_coeff * * eam/fs ../../potentials/FeCr_s.eam.fs Fe

neighbor 0.3 bin
neigh_modify  delay 1

# ------------------- Calculated properties setting---------------------------

compute peratom all pe/atom
compute eatoms all reduce sum c_peratom
compute csym all centro/atom bcc

# ------------------- Thermal properties output ------------------------------

timestep        0.001
thermo 10
thermo_style custom step pe c_eatoms
dump 1 all custom 200 dump.bcc.Fe id type xs ys zs c_peratom

# ------------------- Minimize the total energy ------------------------------

min_style  cg
minimize   1.0e-20 1.0e-20 1 1
WARNING: Resetting reneighboring criteria during minimization (../min.cpp:173)
Memory usage per processor = 5.4889 Mbytes
Step PotEng eatoms 
       0    228785.52    228785.52 
       1    228785.52    228785.52 
Loop time of 0.0599959 on 1 procs (1 MPI x 1 OpenMP) for 1 steps with 250 atoms

Minimization stats:
  Stopping criterion = max force evaluations
  Energy initial, next-to-last, final = 
         228785.524739      228785.524739      228785.524739
  Force two-norm initial, final = 4.26402e-11 3.67923e-06
  Force max component initial, final = 5.02144e-12 2.97728e-07
  Final line search alpha, max atom move = 1 2.97728e-07
  Iterations, force evaluations = 1 1

Pair  time (%) = 0.0593441 (98.9135)
Neigh time (%) = 0 (0)
Comm  time (%) = 8.67844e-05 (0.144651)
Outpt time (%) = 0 (0)
Other time (%) = 0.000565052 (0.941818)

Nlocal:    250 ave 250 max 250 min
Histogram: 1 0 0 0 0 0 0 0 0 0
Nghost:    7221 ave 7221 max 7221 min
Histogram: 1 0 0 0 0 0 0 0 0 0
Neighs:    155250 ave 155250 max 155250 min
Histogram: 1 0 0 0 0 0 0 0 0 0
FullNghs:  0 ave 0 max 0 min
Histogram: 1 0 0 0 0 0 0 0 0 0

Total # of neighbors = 155250
Ave neighs/atom = 621
Neighbor list builds = 0
Dangerous builds = 0
variable   E equal "c_eatoms"
variable   N equal count(all)
variable   E_cohesive equal ${E}/${N}
variable   E_cohesive equal 228785.5247391751036/${N}
variable   E_cohesive equal 228785.5247391751036/250
print "${a}	${E_cohesive}" append lat_param.dat
1.0600000000000000533	915.14209895670046535

# ------------------- Loop:   ----------------------------------

clear
WARNING: OMP_NUM_THREADS environment is not set. (../comm.cpp:100)
  using 1 OpenMP thread(s) per MPI task
next            k
jump            input.rose.Fe
# This input file is used to calculate the lattice constant of bcc Fe
# E. Mansouri
# KTH, Nuclear Engineering
# ebrman@kth.se

# ------------------ Initial parameter defenition --------------------

units           metal
boundary        p p p
atom_style      atomic

# ----------------- variable setting -----------------------------------

variable        k loop 200              # define the number of loop
variable        a equal 1.0+0.02*$k   # define the various lattice constant “a”
variable        a equal 1.0+0.02*4   

# ----------------- Bcc Fe supercell setting ---------------------------

lattice         bcc $a
lattice         bcc 1.0800000000000000711
Lattice spacing in x,y,z = 1.08 1.08 1.08
region          box block 0 5 0 5 0 5
create_box      1 box
Created orthogonal box = (0 0 0) to (5.4 5.4 5.4)
  1 by 1 by 1 MPI processor grid
create_atoms    1 box
Created 250 atoms

# ----------------- Define Interatomic Potential ---------------------

pair_style hybrid/overlay eam/alloy eam/fs
pair_coeff * * eam/alloy ../../potentials/FeCr_d.eam.alloy Fe
pair_coeff * * eam/fs ../../potentials/FeCr_s.eam.fs Fe

neighbor 0.3 bin
neigh_modify  delay 1

# ------------------- Calculated properties setting---------------------------

compute peratom all pe/atom
compute eatoms all reduce sum c_peratom
compute csym all centro/atom bcc

# ------------------- Thermal properties output ------------------------------

timestep        0.001
thermo 10
thermo_style custom step pe c_eatoms
dump 1 all custom 200 dump.bcc.Fe id type xs ys zs c_peratom

# ------------------- Minimize the total energy ------------------------------

min_style  cg
minimize   1.0e-20 1.0e-20 1 1
WARNING: Resetting reneighboring criteria during minimization (../min.cpp:173)
Memory usage per processor = 5.4889 Mbytes
Step PotEng eatoms 
       0    209333.46    209333.46 
       1    209333.46    209333.46 
Loop time of 0.056849 on 1 procs (1 MPI x 1 OpenMP) for 1 steps with 250 atoms

Minimization stats:
  Stopping criterion = max force evaluations
  Energy initial, next-to-last, final = 
         209333.458748      209333.458748      209333.458748
  Force two-norm initial, final = 1.46531e-11 1.3888e-07
  Force max component initial, final = 2.76048e-12 3.21999e-08
  Final line search alpha, max atom move = 1 3.21999e-08
  Iterations, force evaluations = 1 1

Pair  time (%) = 0.0562041 (98.8656)
Neigh time (%) = 0 (0)
Comm  time (%) = 8.46386e-05 (0.148883)
Outpt time (%) = 0 (0)
Other time (%) = 0.000560284 (0.985565)

Nlocal:    250 ave 250 max 250 min
Histogram: 1 0 0 0 0 0 0 0 0 0
Nghost:    7221 ave 7221 max 7221 min
Histogram: 1 0 0 0 0 0 0 0 0 0
Neighs:    151250 ave 151250 max 151250 min
Histogram: 1 0 0 0 0 0 0 0 0 0
FullNghs:  0 ave 0 max 0 min
Histogram: 1 0 0 0 0 0 0 0 0 0

Total # of neighbors = 151250
Ave neighs/atom = 605
Neighbor list builds = 0
Dangerous builds = 0
variable   E equal "c_eatoms"
variable   N equal count(all)
variable   E_cohesive equal ${E}/${N}
variable   E_cohesive equal 209333.45874829101376/${N}
variable   E_cohesive equal 209333.45874829101376/250
print "${a}	${E_cohesive}" append lat_param.dat
1.0800000000000000711	837.33383499316403231

# ------------------- Loop:   ----------------------------------

clear
WARNING: OMP_NUM_THREADS environment is not set. (../comm.cpp:100)
  using 1 OpenMP thread(s) per MPI task
next            k
jump            input.rose.Fe
# This input file is used to calculate the lattice constant of bcc Fe
# E. Mansouri
# KTH, Nuclear Engineering
# ebrman@kth.se

# ------------------ Initial parameter defenition --------------------

units           metal
boundary        p p p
atom_style      atomic

# ----------------- variable setting -----------------------------------

variable        k loop 200              # define the number of loop
variable        a equal 1.0+0.02*$k   # define the various lattice constant “a”
variable        a equal 1.0+0.02*5   

# ----------------- Bcc Fe supercell setting ---------------------------

lattice         bcc $a
lattice         bcc 1.1000000000000000888
Lattice spacing in x,y,z = 1.1 1.1 1.1
region          box block 0 5 0 5 0 5
create_box      1 box
Created orthogonal box = (0 0 0) to (5.5 5.5 5.5)
  1 by 1 by 1 MPI processor grid
create_atoms    1 box
Created 250 atoms

# ----------------- Define Interatomic Potential ---------------------

pair_style hybrid/overlay eam/alloy eam/fs
pair_coeff * * eam/alloy ../../potentials/FeCr_d.eam.alloy Fe
pair_coeff * * eam/fs ../../potentials/FeCr_s.eam.fs Fe

neighbor 0.3 bin
neigh_modify  delay 1

# ------------------- Calculated properties setting---------------------------

compute peratom all pe/atom
compute eatoms all reduce sum c_peratom
compute csym all centro/atom bcc

# ------------------- Thermal properties output ------------------------------

timestep        0.001
thermo 10
thermo_style custom step pe c_eatoms
dump 1 all custom 200 dump.bcc.Fe id type xs ys zs c_peratom

# ------------------- Minimize the total energy ------------------------------

min_style  cg
minimize   1.0e-20 1.0e-20 1 1
WARNING: Resetting reneighboring criteria during minimization (../min.cpp:173)
Memory usage per processor = 5.4889 Mbytes
Step PotEng eatoms 
       0    191674.42    191674.42 
       1    191674.42    191674.42 
Loop time of 0.0523391 on 1 procs (1 MPI x 1 OpenMP) for 1 steps with 250 atoms

Minimization stats:
  Stopping criterion = max force evaluations
  Energy initial, next-to-last, final = 
            191674.425         191674.425         191674.425
  Force two-norm initial, final = 3.46818e-11 3.23498e-07
  Force max component initial, final = 3.64891e-12 2.98715e-08
  Final line search alpha, max atom move = 1 2.98715e-08
  Iterations, force evaluations = 1 1

Pair  time (%) = 0.0516839 (98.7482)
Neigh time (%) = 0 (0)
Comm  time (%) = 8.63075e-05 (0.164901)
Outpt time (%) = 0 (0)
Other time (%) = 0.000568867 (1.08689)

Nlocal:    250 ave 250 max 250 min
Histogram: 1 0 0 0 0 0 0 0 0 0
Nghost:    7221 ave 7221 max 7221 min
Histogram: 1 0 0 0 0 0 0 0 0 0
Neighs:    133250 ave 133250 max 133250 min
Histogram: 1 0 0 0 0 0 0 0 0 0
FullNghs:  0 ave 0 max 0 min
Histogram: 1 0 0 0 0 0 0 0 0 0

Total # of neighbors = 133250
Ave neighs/atom = 533
Neighbor list builds = 0
Dangerous builds = 0
variable   E equal "c_eatoms"
variable   N equal count(all)
variable   E_cohesive equal ${E}/${N}
variable   E_cohesive equal 191674.4249997359293/${N}
variable   E_cohesive equal 191674.4249997359293/250
print "${a}	${E_cohesive}" append lat_param.dat
1.1000000000000000888	766.69769999894367629

# ------------------- Loop:   ----------------------------------

clear
WARNING: OMP_NUM_THREADS environment is not set. (../comm.cpp:100)
  using 1 OpenMP thread(s) per MPI task
next            k
jump            input.rose.Fe
# This input file is used to calculate the lattice constant of bcc Fe
# E. Mansouri
# KTH, Nuclear Engineering
# ebrman@kth.se

# ------------------ Initial parameter defenition --------------------

units           metal
boundary        p p p
atom_style      atomic

# ----------------- variable setting -----------------------------------

variable        k loop 200              # define the number of loop
variable        a equal 1.0+0.02*$k   # define the various lattice constant “a”
variable        a equal 1.0+0.02*6   

# ----------------- Bcc Fe supercell setting ---------------------------

lattice         bcc $a
lattice         bcc 1.1200000000000001066
Lattice spacing in x,y,z = 1.12 1.12 1.12
region          box block 0 5 0 5 0 5
create_box      1 box
Created orthogonal box = (0 0 0) to (5.6 5.6 5.6)
  1 by 1 by 1 MPI processor grid
create_atoms    1 box
Created 250 atoms

# ----------------- Define Interatomic Potential ---------------------

pair_style hybrid/overlay eam/alloy eam/fs
pair_coeff * * eam/alloy ../../potentials/FeCr_d.eam.alloy Fe
pair_coeff * * eam/fs ../../potentials/FeCr_s.eam.fs Fe

neighbor 0.3 bin
neigh_modify  delay 1

# ------------------- Calculated properties setting---------------------------

compute peratom all pe/atom
compute eatoms all reduce sum c_peratom
compute csym all centro/atom bcc

# ------------------- Thermal properties output ------------------------------

timestep        0.001
thermo 10
thermo_style custom step pe c_eatoms
dump 1 all custom 200 dump.bcc.Fe id type xs ys zs c_peratom

# ------------------- Minimize the total energy ------------------------------

min_style  cg
minimize   1.0e-20 1.0e-20 1 1
WARNING: Resetting reneighboring criteria during minimization (../min.cpp:173)
Memory usage per processor = 5.49504 Mbytes
Step PotEng eatoms 
       0    175623.64    175623.64 
       1    175623.64    175623.64 
Loop time of 0.0509279 on 1 procs (1 MPI x 1 OpenMP) for 1 steps with 250 atoms

Minimization stats:
  Stopping criterion = max force evaluations
  Energy initial, next-to-last, final = 
         175623.635369      175623.635369      175623.635369
  Force two-norm initial, final = 4.10972e-11 3.76221e-07
  Force max component initial, final = 4.88498e-12 4.35533e-08
  Final line search alpha, max atom move = 1 4.35533e-08
  Iterations, force evaluations = 1 1

Pair  time (%) = 0.050308 (98.7828)
Neigh time (%) = 0 (0)
Comm  time (%) = 6.91414e-05 (0.135763)
Outpt time (%) = 0 (0)
Other time (%) = 0.000550747 (1.08143)

Nlocal:    250 ave 250 max 250 min
Histogram: 1 0 0 0 0 0 0 0 0 0
Nghost:    5869 ave 5869 max 5869 min
Histogram: 1 0 0 0 0 0 0 0 0 0
Neighs:    129725 ave 129725 max 129725 min
Histogram: 1 0 0 0 0 0 0 0 0 0
FullNghs:  0 ave 0 max 0 min
Histogram: 1 0 0 0 0 0 0 0 0 0

Total # of neighbors = 129725
Ave neighs/atom = 518.9
Neighbor list builds = 0
Dangerous builds = 0
variable   E equal "c_eatoms"
variable   N equal count(all)
variable   E_cohesive equal ${E}/${N}
variable   E_cohesive equal 175623.63536882400513/${N}
variable   E_cohesive equal 175623.63536882400513/250
print "${a}	${E_cohesive}" append lat_param.dat
1.1200000000000001066	702.49454147529604597

# ------------------- Loop:   ----------------------------------

clear
WARNING: OMP_NUM_THREADS environment is not set. (../comm.cpp:100)
  using 1 OpenMP thread(s) per MPI task
next            k
jump            input.rose.Fe
# This input file is used to calculate the lattice constant of bcc Fe
# E. Mansouri
# KTH, Nuclear Engineering
# ebrman@kth.se

# ------------------ Initial parameter defenition --------------------

units           metal
boundary        p p p
atom_style      atomic

# ----------------- variable setting -----------------------------------

variable        k loop 200              # define the number of loop
variable        a equal 1.0+0.02*$k   # define the various lattice constant “a”
variable        a equal 1.0+0.02*7   

# ----------------- Bcc Fe supercell setting ---------------------------

lattice         bcc $a
lattice         bcc 1.1400000000000001243
Lattice spacing in x,y,z = 1.14 1.14 1.14
region          box block 0 5 0 5 0 5
create_box      1 box
Created orthogonal box = (0 0 0) to (5.7 5.7 5.7)
  1 by 1 by 1 MPI processor grid
create_atoms    1 box
Created 250 atoms

# ----------------- Define Interatomic Potential ---------------------

pair_style hybrid/overlay eam/alloy eam/fs
pair_coeff * * eam/alloy ../../potentials/FeCr_d.eam.alloy Fe
pair_coeff * * eam/fs ../../potentials/FeCr_s.eam.fs Fe

neighbor 0.3 bin
neigh_modify  delay 1

# ------------------- Calculated properties setting---------------------------

compute peratom all pe/atom
compute eatoms all reduce sum c_peratom
compute csym all centro/atom bcc

# ------------------- Thermal properties output ------------------------------

timestep        0.001
thermo 10
thermo_style custom step pe c_eatoms
dump 1 all custom 200 dump.bcc.Fe id type xs ys zs c_peratom

# ------------------- Minimize the total energy ------------------------------

min_style  cg
minimize   1.0e-20 1.0e-20 1 1
WARNING: Resetting reneighboring criteria during minimization (../min.cpp:173)
Memory usage per processor = 5.49318 Mbytes
Step PotEng eatoms 
       0    161023.21    161023.21 
       1    161023.21    161023.21 
Loop time of 0.072032 on 1 procs (1 MPI x 1 OpenMP) for 1 steps with 250 atoms

Minimization stats:
  Stopping criterion = linesearch alpha is zero
  Energy initial, next-to-last, final = 
         161023.208229      161023.208229      161023.208229
  Force two-norm initial, final = 2.53711e-11 2.53711e-11
  Force max component initial, final = 2.72848e-12 2.72848e-12
  Final line search alpha, max atom move = 0.5 1.36424e-12
  Iterations, force evaluations = 1 2

Pair  time (%) = 0.0714018 (99.1252)
Neigh time (%) = 0 (0)
Comm  time (%) = 0.000102997 (0.142988)
Outpt time (%) = 0 (0)
Other time (%) = 0.000527143 (0.731819)

Nlocal:    250 ave 250 max 250 min
Histogram: 1 0 0 0 0 0 0 0 0 0
Nghost:    5869 ave 5869 max 5869 min
Histogram: 1 0 0 0 0 0 0 0 0 0
Neighs:    120500 ave 120500 max 120500 min
Histogram: 1 0 0 0 0 0 0 0 0 0
FullNghs:  0 ave 0 max 0 min
Histogram: 1 0 0 0 0 0 0 0 0 0

Total # of neighbors = 120500
Ave neighs/atom = 482
Neighbor list builds = 0
Dangerous builds = 0
variable   E equal "c_eatoms"
variable   N equal count(all)
variable   E_cohesive equal ${E}/${N}
variable   E_cohesive equal 161023.20822929110727/${N}
variable   E_cohesive equal 161023.20822929110727/250
print "${a}	${E_cohesive}" append lat_param.dat
1.1400000000000001243	644.0928329171644009

# ------------------- Loop:   ----------------------------------

clear
WARNING: OMP_NUM_THREADS environment is not set. (../comm.cpp:100)
  using 1 OpenMP thread(s) per MPI task
next            k
jump            input.rose.Fe
# This input file is used to calculate the lattice constant of bcc Fe
# E. Mansouri
# KTH, Nuclear Engineering
# ebrman@kth.se

# ------------------ Initial parameter defenition --------------------

units           metal
boundary        p p p
atom_style      atomic

# ----------------- variable setting -----------------------------------

variable        k loop 200              # define the number of loop
variable        a equal 1.0+0.02*$k   # define the various lattice constant “a”
variable        a equal 1.0+0.02*8   

# ----------------- Bcc Fe supercell setting ---------------------------

lattice         bcc $a
lattice         bcc 1.1599999999999999201
Lattice spacing in x,y,z = 1.16 1.16 1.16
region          box block 0 5 0 5 0 5
create_box      1 box
Created orthogonal box = (0 0 0) to (5.8 5.8 5.8)
  1 by 1 by 1 MPI processor grid
create_atoms    1 box
Created 250 atoms

# ----------------- Define Interatomic Potential ---------------------

pair_style hybrid/overlay eam/alloy eam/fs
pair_coeff * * eam/alloy ../../potentials/FeCr_d.eam.alloy Fe
pair_coeff * * eam/fs ../../potentials/FeCr_s.eam.fs Fe

neighbor 0.3 bin
neigh_modify  delay 1

# ------------------- Calculated properties setting---------------------------

compute peratom all pe/atom
compute eatoms all reduce sum c_peratom
compute csym all centro/atom bcc

# ------------------- Thermal properties output ------------------------------

timestep        0.001
thermo 10
thermo_style custom step pe c_eatoms
dump 1 all custom 200 dump.bcc.Fe id type xs ys zs c_peratom

# ------------------- Minimize the total energy ------------------------------

min_style  cg
minimize   1.0e-20 1.0e-20 1 1
WARNING: Resetting reneighboring criteria during minimization (../min.cpp:173)
Memory usage per processor = 5.49318 Mbytes
Step PotEng eatoms 
       0    147726.38    147726.38 
       1    147726.38    147726.38 
Loop time of 0.0693462 on 1 procs (1 MPI x 1 OpenMP) for 1 steps with 250 atoms

Minimization stats:
  Stopping criterion = linesearch alpha is zero
  Energy initial, next-to-last, final = 
         147726.380235      147726.380235      147726.380235
  Force two-norm initial, final = 2.19629e-11 2.19629e-11
  Force max component initial, final = 2.55795e-12 2.55795e-12
  Final line search alpha, max atom move = 0.5 1.27898e-12
  Iterations, force evaluations = 1 2

Pair  time (%) = 0.0687282 (99.1088)
Neigh time (%) = 0 (0)
Comm  time (%) = 0.000101805 (0.146807)
Outpt time (%) = 0 (0)
Other time (%) = 0.000516176 (0.744347)

Nlocal:    250 ave 250 max 250 min
Histogram: 1 0 0 0 0 0 0 0 0 0
Nghost:    5869 ave 5869 max 5869 min
Histogram: 1 0 0 0 0 0 0 0 0 0
Neighs:    117500 ave 117500 max 117500 min
Histogram: 1 0 0 0 0 0 0 0 0 0
FullNghs:  0 ave 0 max 0 min
Histogram: 1 0 0 0 0 0 0 0 0 0

Total # of neighbors = 117500
Ave neighs/atom = 470
Neighbor list builds = 0
Dangerous builds = 0
variable   E equal "c_eatoms"
variable   N equal count(all)
variable   E_cohesive equal ${E}/${N}
variable   E_cohesive equal 147726.38023500618874/${N}
variable   E_cohesive equal 147726.38023500618874/250
print "${a}	${E_cohesive}" append lat_param.dat
1.1599999999999999201	590.90552094002475769

# ------------------- Loop:   ----------------------------------

clear
WARNING: OMP_NUM_THREADS environment is not set. (../comm.cpp:100)
  using 1 OpenMP thread(s) per MPI task
next            k
jump            input.rose.Fe
# This input file is used to calculate the lattice constant of bcc Fe
# E. Mansouri
# KTH, Nuclear Engineering
# ebrman@kth.se

# ------------------ Initial parameter defenition --------------------

units           metal
boundary        p p p
atom_style      atomic

# ----------------- variable setting -----------------------------------

variable        k loop 200              # define the number of loop
variable        a equal 1.0+0.02*$k   # define the various lattice constant “a”
variable        a equal 1.0+0.02*9   

# ----------------- Bcc Fe supercell setting ---------------------------

lattice         bcc $a
lattice         bcc 1.1799999999999999378
Lattice spacing in x,y,z = 1.18 1.18 1.18
region          box block 0 5 0 5 0 5
create_box      1 box
Created orthogonal box = (0 0 0) to (5.9 5.9 5.9)
  1 by 1 by 1 MPI processor grid
create_atoms    1 box
Created 250 atoms

# ----------------- Define Interatomic Potential ---------------------

pair_style hybrid/overlay eam/alloy eam/fs
pair_coeff * * eam/alloy ../../potentials/FeCr_d.eam.alloy Fe
pair_coeff * * eam/fs ../../potentials/FeCr_s.eam.fs Fe

neighbor 0.3 bin
neigh_modify  delay 1

# ------------------- Calculated properties setting---------------------------

compute peratom all pe/atom
compute eatoms all reduce sum c_peratom
compute csym all centro/atom bcc

# ------------------- Thermal properties output ------------------------------

timestep        0.001
thermo 10
thermo_style custom step pe c_eatoms
dump 1 all custom 200 dump.bcc.Fe id type xs ys zs c_peratom

# ------------------- Minimize the total energy ------------------------------

min_style  cg
minimize   1.0e-20 1.0e-20 1 1
WARNING: Resetting reneighboring criteria during minimization (../min.cpp:173)
Memory usage per processor = 5.49318 Mbytes
Step PotEng eatoms 
       0    135494.52    135494.52 
       1    135494.52    135494.52 
Loop time of 0.0646629 on 1 procs (1 MPI x 1 OpenMP) for 1 steps with 250 atoms

Minimization stats:
  Stopping criterion = linesearch alpha is zero
  Energy initial, next-to-last, final = 
          135494.52164       135494.52164       135494.52164
  Force two-norm initial, final = 1.51108e-11 1.51108e-11
  Force max component initial, final = 2.33058e-12 2.33058e-12
  Final line search alpha, max atom move = 0.5 1.16529e-12
  Iterations, force evaluations = 1 2

Pair  time (%) = 0.064044 (99.0428)
Neigh time (%) = 0 (0)
Comm  time (%) = 0.000102758 (0.158914)
Outpt time (%) = 0 (0)
Other time (%) = 0.000516176 (0.798257)

Nlocal:    250 ave 250 max 250 min
Histogram: 1 0 0 0 0 0 0 0 0 0
Nghost:    5869 ave 5869 max 5869 min
Histogram: 1 0 0 0 0 0 0 0 0 0
Neighs:    111500 ave 111500 max 111500 min
Histogram: 1 0 0 0 0 0 0 0 0 0
FullNghs:  0 ave 0 max 0 min
Histogram: 1 0 0 0 0 0 0 0 0 0

Total # of neighbors = 111500
Ave neighs/atom = 446
Neighbor list builds = 0
Dangerous builds = 0
variable   E equal "c_eatoms"
variable   N equal count(all)
variable   E_cohesive equal ${E}/${N}
variable   E_cohesive equal 135494.5216405170795/${N}
variable   E_cohesive equal 135494.5216405170795/250
print "${a}	${E_cohesive}" append lat_param.dat
1.1799999999999999378	541.97808656206836986

# ------------------- Loop:   ----------------------------------

clear
WARNING: OMP_NUM_THREADS environment is not set. (../comm.cpp:100)
  using 1 OpenMP thread(s) per MPI task
next            k
jump            input.rose.Fe
# This input file is used to calculate the lattice constant of bcc Fe
# E. Mansouri
# KTH, Nuclear Engineering
# ebrman@kth.se

# ------------------ Initial parameter defenition --------------------

units           metal
boundary        p p p
atom_style      atomic

# ----------------- variable setting -----------------------------------

variable        k loop 200              # define the number of loop
variable        a equal 1.0+0.02*$k   # define the various lattice constant “a”
variable        a equal 1.0+0.02*10   

# ----------------- Bcc Fe supercell setting ---------------------------

lattice         bcc $a
lattice         bcc 1.1999999999999999556
Lattice spacing in x,y,z = 1.2 1.2 1.2
region          box block 0 5 0 5 0 5
create_box      1 box
Created orthogonal box = (0 0 0) to (6 6 6)
  1 by 1 by 1 MPI processor grid
create_atoms    1 box
Created 250 atoms

# ----------------- Define Interatomic Potential ---------------------

pair_style hybrid/overlay eam/alloy eam/fs
pair_coeff * * eam/alloy ../../potentials/FeCr_d.eam.alloy Fe
pair_coeff * * eam/fs ../../potentials/FeCr_s.eam.fs Fe

neighbor 0.3 bin
neigh_modify  delay 1

# ------------------- Calculated properties setting---------------------------

compute peratom all pe/atom
compute eatoms all reduce sum c_peratom
compute csym all centro/atom bcc

# ------------------- Thermal properties output ------------------------------

timestep        0.001
thermo 10
thermo_style custom step pe c_eatoms
dump 1 all custom 200 dump.bcc.Fe id type xs ys zs c_peratom

# ------------------- Minimize the total energy ------------------------------

min_style  cg
minimize   1.0e-20 1.0e-20 1 1
WARNING: Resetting reneighboring criteria during minimization (../min.cpp:173)
Memory usage per processor = 5.49318 Mbytes
Step PotEng eatoms 
       0    124200.35    124200.35 
       1    124200.35    124200.35 
Loop time of 0.062685 on 1 procs (1 MPI x 1 OpenMP) for 1 steps with 250 atoms

Minimization stats:
  Stopping criterion = linesearch alpha is zero
  Energy initial, next-to-last, final = 
         124200.348393      124200.348393      124200.348393
  Force two-norm initial, final = 2.83422e-11 2.83422e-11
  Force max component initial, final = 2.6148e-12 2.6148e-12
  Final line search alpha, max atom move = 0.5 1.3074e-12
  Iterations, force evaluations = 1 2

Pair  time (%) = 0.0620613 (99.005)
Neigh time (%) = 0 (0)
Comm  time (%) = 0.000103712 (0.16545)
Outpt time (%) = 0 (0)
Other time (%) = 0.000519991 (0.82953)

Nlocal:    250 ave 250 max 250 min
Histogram: 1 0 0 0 0 0 0 0 0 0
Nghost:    5869 ave 5869 max 5869 min
Histogram: 1 0 0 0 0 0 0 0 0 0
Neighs:    108500 ave 108500 max 108500 min
Histogram: 1 0 0 0 0 0 0 0 0 0
FullNghs:  0 ave 0 max 0 min
Histogram: 1 0 0 0 0 0 0 0 0 0

Total # of neighbors = 108500
Ave neighs/atom = 434
Neighbor list builds = 0
Dangerous builds = 0
variable   E equal "c_eatoms"
variable   N equal count(all)
variable   E_cohesive equal ${E}/${N}
variable   E_cohesive equal 124200.34839354347787/${N}
variable   E_cohesive equal 124200.34839354347787/250
print "${a}	${E_cohesive}" append lat_param.dat
1.1999999999999999556	496.80139357417391466

# ------------------- Loop:   ----------------------------------

clear
WARNING: OMP_NUM_THREADS environment is not set. (../comm.cpp:100)
  using 1 OpenMP thread(s) per MPI task
next            k
jump            input.rose.Fe
# This input file is used to calculate the lattice constant of bcc Fe
# E. Mansouri
# KTH, Nuclear Engineering
# ebrman@kth.se

# ------------------ Initial parameter defenition --------------------

units           metal
boundary        p p p
atom_style      atomic

# ----------------- variable setting -----------------------------------

variable        k loop 200              # define the number of loop
variable        a equal 1.0+0.02*$k   # define the various lattice constant “a”
variable        a equal 1.0+0.02*11   

# ----------------- Bcc Fe supercell setting ---------------------------

lattice         bcc $a
lattice         bcc 1.2199999999999999734
Lattice spacing in x,y,z = 1.22 1.22 1.22
region          box block 0 5 0 5 0 5
create_box      1 box
Created orthogonal box = (0 0 0) to (6.1 6.1 6.1)
  1 by 1 by 1 MPI processor grid
create_atoms    1 box
Created 250 atoms

# ----------------- Define Interatomic Potential ---------------------

pair_style hybrid/overlay eam/alloy eam/fs
pair_coeff * * eam/alloy ../../potentials/FeCr_d.eam.alloy Fe
pair_coeff * * eam/fs ../../potentials/FeCr_s.eam.fs Fe

neighbor 0.3 bin
neigh_modify  delay 1

# ------------------- Calculated properties setting---------------------------

compute peratom all pe/atom
compute eatoms all reduce sum c_peratom
compute csym all centro/atom bcc

# ------------------- Thermal properties output ------------------------------

timestep        0.001
thermo 10
thermo_style custom step pe c_eatoms
dump 1 all custom 200 dump.bcc.Fe id type xs ys zs c_peratom

# ------------------- Minimize the total energy ------------------------------

min_style  cg
minimize   1.0e-20 1.0e-20 1 1
WARNING: Resetting reneighboring criteria during minimization (../min.cpp:173)
Memory usage per processor = 5.49318 Mbytes
Step PotEng eatoms 
       0    113770.31    113770.31 
       1    113770.31    113770.31 
Loop time of 0.0623071 on 1 procs (1 MPI x 1 OpenMP) for 1 steps with 250 atoms

Minimization stats:
  Stopping criterion = linesearch alpha is zero
  Energy initial, next-to-last, final = 
         113770.313109      113770.313109      113770.313109
  Force two-norm initial, final = 2.9535e-11 2.9535e-11
  Force max component initial, final = 3.83568e-12 3.83568e-12
  Final line search alpha, max atom move = 0.5 1.91784e-12
  Iterations, force evaluations = 1 2

Pair  time (%) = 0.0616832 (98.9986)
Neigh time (%) = 0 (0)
Comm  time (%) = 0.000103951 (0.166836)
Outpt time (%) = 0 (0)
Other time (%) = 0.000519991 (0.834561)

Nlocal:    250 ave 250 max 250 min
Histogram: 1 0 0 0 0 0 0 0 0 0
Nghost:    5869 ave 5869 max 5869 min
Histogram: 1 0 0 0 0 0 0 0 0 0
Neighs:    108500 ave 108500 max 108500 min
Histogram: 1 0 0 0 0 0 0 0 0 0
FullNghs:  0 ave 0 max 0 min
Histogram: 1 0 0 0 0 0 0 0 0 0

Total # of neighbors = 108500
Ave neighs/atom = 434
Neighbor list builds = 0
Dangerous builds = 0
variable   E equal "c_eatoms"
variable   N equal count(all)
variable   E_cohesive equal ${E}/${N}
variable   E_cohesive equal 113770.31310908583691/${N}
variable   E_cohesive equal 113770.31310908583691/250
print "${a}	${E_cohesive}" append lat_param.dat
1.2199999999999999734	455.08125243634333401

# ------------------- Loop:   ----------------------------------

clear
WARNING: OMP_NUM_THREADS environment is not set. (../comm.cpp:100)
  using 1 OpenMP thread(s) per MPI task
next            k
jump            input.rose.Fe
# This input file is used to calculate the lattice constant of bcc Fe
# E. Mansouri
# KTH, Nuclear Engineering
# ebrman@kth.se

# ------------------ Initial parameter defenition --------------------

units           metal
boundary        p p p
atom_style      atomic

# ----------------- variable setting -----------------------------------

variable        k loop 200              # define the number of loop
variable        a equal 1.0+0.02*$k   # define the various lattice constant “a”
variable        a equal 1.0+0.02*12   

# ----------------- Bcc Fe supercell setting ---------------------------

lattice         bcc $a
lattice         bcc 1.2399999999999999911
Lattice spacing in x,y,z = 1.24 1.24 1.24
region          box block 0 5 0 5 0 5
create_box      1 box
Created orthogonal box = (0 0 0) to (6.2 6.2 6.2)
  1 by 1 by 1 MPI processor grid
create_atoms    1 box
Created 250 atoms

# ----------------- Define Interatomic Potential ---------------------

pair_style hybrid/overlay eam/alloy eam/fs
pair_coeff * * eam/alloy ../../potentials/FeCr_d.eam.alloy Fe
pair_coeff * * eam/fs ../../potentials/FeCr_s.eam.fs Fe

neighbor 0.3 bin
neigh_modify  delay 1

# ------------------- Calculated properties setting---------------------------

compute peratom all pe/atom
compute eatoms all reduce sum c_peratom
compute csym all centro/atom bcc

# ------------------- Thermal properties output ------------------------------

timestep        0.001
thermo 10
thermo_style custom step pe c_eatoms
dump 1 all custom 200 dump.bcc.Fe id type xs ys zs c_peratom

# ------------------- Minimize the total energy ------------------------------

min_style  cg
minimize   1.0e-20 1.0e-20 1 1
WARNING: Resetting reneighboring criteria during minimization (../min.cpp:173)
Memory usage per processor = 4.73024 Mbytes
Step PotEng eatoms 
       0    104120.88    104120.88 
       1    104120.88    104120.88 
Loop time of 0.0367491 on 1 procs (1 MPI x 1 OpenMP) for 1 steps with 250 atoms

Minimization stats:
  Stopping criterion = max force evaluations
  Energy initial, next-to-last, final = 
         104120.877079      104120.877079      104120.877079
  Force two-norm initial, final = 2.1914e-11 1.00458e-07
  Force max component initial, final = 4.31299e-12 1.4376e-08
  Final line search alpha, max atom move = 1 1.4376e-08
  Iterations, force evaluations = 1 1

Pair  time (%) = 0.036123 (98.2963)
Neigh time (%) = 0 (0)
Comm  time (%) = 7.20024e-05 (0.19593)
Outpt time (%) = 0 (0)
Other time (%) = 0.000554085 (1.50775)

Nlocal:    250 ave 250 max 250 min
Histogram: 1 0 0 0 0 0 0 0 0 0
Nghost:    5869 ave 5869 max 5869 min
Histogram: 1 0 0 0 0 0 0 0 0 0
Neighs:    93500 ave 93500 max 93500 min
Histogram: 1 0 0 0 0 0 0 0 0 0
FullNghs:  0 ave 0 max 0 min
Histogram: 1 0 0 0 0 0 0 0 0 0

Total # of neighbors = 93500
Ave neighs/atom = 374
Neighbor list builds = 0
Dangerous builds = 0
variable   E equal "c_eatoms"
variable   N equal count(all)
variable   E_cohesive equal ${E}/${N}
variable   E_cohesive equal 104120.8770787310641/${N}
variable   E_cohesive equal 104120.8770787310641/250
print "${a}	${E_cohesive}" append lat_param.dat
1.2399999999999999911	416.48350831492427915

# ------------------- Loop:   ----------------------------------

clear
WARNING: OMP_NUM_THREADS environment is not set. (../comm.cpp:100)
  using 1 OpenMP thread(s) per MPI task
next            k
jump            input.rose.Fe
# This input file is used to calculate the lattice constant of bcc Fe
# E. Mansouri
# KTH, Nuclear Engineering
# ebrman@kth.se

# ------------------ Initial parameter defenition --------------------

units           metal
boundary        p p p
atom_style      atomic

# ----------------- variable setting -----------------------------------

variable        k loop 200              # define the number of loop
variable        a equal 1.0+0.02*$k   # define the various lattice constant “a”
variable        a equal 1.0+0.02*13   

# ----------------- Bcc Fe supercell setting ---------------------------

lattice         bcc $a
lattice         bcc 1.2600000000000000089
Lattice spacing in x,y,z = 1.26 1.26 1.26
region          box block 0 5 0 5 0 5
create_box      1 box
Created orthogonal box = (0 0 0) to (6.3 6.3 6.3)
  1 by 1 by 1 MPI processor grid
create_atoms    1 box
Created 250 atoms

# ----------------- Define Interatomic Potential ---------------------

pair_style hybrid/overlay eam/alloy eam/fs
pair_coeff * * eam/alloy ../../potentials/FeCr_d.eam.alloy Fe
pair_coeff * * eam/fs ../../potentials/FeCr_s.eam.fs Fe

neighbor 0.3 bin
neigh_modify  delay 1

# ------------------- Calculated properties setting---------------------------

compute peratom all pe/atom
compute eatoms all reduce sum c_peratom
compute csym all centro/atom bcc

# ------------------- Thermal properties output ------------------------------

timestep        0.001
thermo 10
thermo_style custom step pe c_eatoms
dump 1 all custom 200 dump.bcc.Fe id type xs ys zs c_peratom

# ------------------- Minimize the total energy ------------------------------

min_style  cg
minimize   1.0e-20 1.0e-20 1 1
WARNING: Resetting reneighboring criteria during minimization (../min.cpp:173)
Memory usage per processor = 4.66571 Mbytes
Step PotEng eatoms 
       0    95212.387    95212.387 
       1    95212.387    95212.387 
Loop time of 0.0525451 on 1 procs (1 MPI x 1 OpenMP) for 1 steps with 250 atoms

Minimization stats:
  Stopping criterion = linesearch alpha is zero
  Energy initial, next-to-last, final = 
          95212.386519       95212.386519       95212.386519
  Force two-norm initial, final = 1.17747e-11 1.17747e-11
  Force max component initial, final = 1.45217e-12 1.45217e-12
  Final line search alpha, max atom move = 0.5 7.26086e-13
  Iterations, force evaluations = 1 2

Pair  time (%) = 0.0519419 (98.852)
Neigh time (%) = 0 (0)
Comm  time (%) = 9.01222e-05 (0.171514)
Outpt time (%) = 0 (0)
Other time (%) = 0.000513077 (0.976451)

Nlocal:    250 ave 250 max 250 min
Histogram: 1 0 0 0 0 0 0 0 0 0
Nghost:    4691 ave 4691 max 4691 min
Histogram: 1 0 0 0 0 0 0 0 0 0
Neighs:    90500 ave 90500 max 90500 min
Histogram: 1 0 0 0 0 0 0 0 0 0
FullNghs:  0 ave 0 max 0 min
Histogram: 1 0 0 0 0 0 0 0 0 0

Total # of neighbors = 90500
Ave neighs/atom = 362
Neighbor list builds = 0
Dangerous builds = 0
variable   E equal "c_eatoms"
variable   N equal count(all)
variable   E_cohesive equal ${E}/${N}
variable   E_cohesive equal 95212.386519032312208/${N}
variable   E_cohesive equal 95212.386519032312208/250
print "${a}	${E_cohesive}" append lat_param.dat
1.2600000000000000089	380.84954607612922928

# ------------------- Loop:   ----------------------------------

clear
WARNING: OMP_NUM_THREADS environment is not set. (../comm.cpp:100)
  using 1 OpenMP thread(s) per MPI task
next            k
jump            input.rose.Fe
# This input file is used to calculate the lattice constant of bcc Fe
# E. Mansouri
# KTH, Nuclear Engineering
# ebrman@kth.se

# ------------------ Initial parameter defenition --------------------

units           metal
boundary        p p p
atom_style      atomic

# ----------------- variable setting -----------------------------------

variable        k loop 200              # define the number of loop
variable        a equal 1.0+0.02*$k   # define the various lattice constant “a”
variable        a equal 1.0+0.02*14   

# ----------------- Bcc Fe supercell setting ---------------------------

lattice         bcc $a
lattice         bcc 1.2800000000000000266
Lattice spacing in x,y,z = 1.28 1.28 1.28
region          box block 0 5 0 5 0 5
create_box      1 box
Created orthogonal box = (0 0 0) to (6.4 6.4 6.4)
  1 by 1 by 1 MPI processor grid
create_atoms    1 box
Created 250 atoms

# ----------------- Define Interatomic Potential ---------------------

pair_style hybrid/overlay eam/alloy eam/fs
pair_coeff * * eam/alloy ../../potentials/FeCr_d.eam.alloy Fe
pair_coeff * * eam/fs ../../potentials/FeCr_s.eam.fs Fe

neighbor 0.3 bin
neigh_modify  delay 1

# ------------------- Calculated properties setting---------------------------

compute peratom all pe/atom
compute eatoms all reduce sum c_peratom
compute csym all centro/atom bcc

# ------------------- Thermal properties output ------------------------------

timestep        0.001
thermo 10
thermo_style custom step pe c_eatoms
dump 1 all custom 200 dump.bcc.Fe id type xs ys zs c_peratom

# ------------------- Minimize the total energy ------------------------------

min_style  cg
minimize   1.0e-20 1.0e-20 1 1
WARNING: Resetting reneighboring criteria during minimization (../min.cpp:173)
Memory usage per processor = 4.66571 Mbytes
Step PotEng eatoms 
       0    87000.488    87000.488 
       1    87000.488    87000.488 
Loop time of 0.0350718 on 1 procs (1 MPI x 1 OpenMP) for 1 steps with 250 atoms

Minimization stats:
  Stopping criterion = max force evaluations
  Energy initial, next-to-last, final = 
         87000.4883251      87000.4883251      87000.4883251
  Force two-norm initial, final = 2.79944e-11 1.2834e-07
  Force max component initial, final = 2.69296e-12 1.15922e-08
  Final line search alpha, max atom move = 1 1.15922e-08
  Iterations, force evaluations = 1 1

Pair  time (%) = 0.0344892 (98.3386)
Neigh time (%) = 0 (0)
Comm  time (%) = 5.81741e-05 (0.165871)
Outpt time (%) = 0 (0)
Other time (%) = 0.000524521 (1.49556)

Nlocal:    250 ave 250 max 250 min
Histogram: 1 0 0 0 0 0 0 0 0 0
Nghost:    4691 ave 4691 max 4691 min
Histogram: 1 0 0 0 0 0 0 0 0 0
Neighs:    90500 ave 90500 max 90500 min
Histogram: 1 0 0 0 0 0 0 0 0 0
FullNghs:  0 ave 0 max 0 min
Histogram: 1 0 0 0 0 0 0 0 0 0

Total # of neighbors = 90500
Ave neighs/atom = 362
Neighbor list builds = 0
Dangerous builds = 0
variable   E equal "c_eatoms"
variable   N equal count(all)
variable   E_cohesive equal ${E}/${N}
variable   E_cohesive equal 87000.488325076599722/${N}
variable   E_cohesive equal 87000.488325076599722/250
print "${a}	${E_cohesive}" append lat_param.dat
1.2800000000000000266	348.00195330030641117

# ------------------- Loop:   ----------------------------------

clear
WARNING: OMP_NUM_THREADS environment is not set. (../comm.cpp:100)
  using 1 OpenMP thread(s) per MPI task
next            k
jump            input.rose.Fe
# This input file is used to calculate the lattice constant of bcc Fe
# E. Mansouri
# KTH, Nuclear Engineering
# ebrman@kth.se

# ------------------ Initial parameter defenition --------------------

units           metal
boundary        p p p
atom_style      atomic

# ----------------- variable setting -----------------------------------

variable        k loop 200              # define the number of loop
variable        a equal 1.0+0.02*$k   # define the various lattice constant “a”
variable        a equal 1.0+0.02*15   

# ----------------- Bcc Fe supercell setting ---------------------------

lattice         bcc $a
lattice         bcc 1.3000000000000000444
Lattice spacing in x,y,z = 1.3 1.3 1.3
region          box block 0 5 0 5 0 5
create_box      1 box
Created orthogonal box = (0 0 0) to (6.5 6.5 6.5)
  1 by 1 by 1 MPI processor grid
create_atoms    1 box
Created 250 atoms

# ----------------- Define Interatomic Potential ---------------------

pair_style hybrid/overlay eam/alloy eam/fs
pair_coeff * * eam/alloy ../../potentials/FeCr_d.eam.alloy Fe
pair_coeff * * eam/fs ../../potentials/FeCr_s.eam.fs Fe

neighbor 0.3 bin
neigh_modify  delay 1

# ------------------- Calculated properties setting---------------------------

compute peratom all pe/atom
compute eatoms all reduce sum c_peratom
compute csym all centro/atom bcc

# ------------------- Thermal properties output ------------------------------

timestep        0.001
thermo 10
thermo_style custom step pe c_eatoms
dump 1 all custom 200 dump.bcc.Fe id type xs ys zs c_peratom

# ------------------- Minimize the total energy ------------------------------

min_style  cg
minimize   1.0e-20 1.0e-20 1 1
WARNING: Resetting reneighboring criteria during minimization (../min.cpp:173)
Memory usage per processor = 4.66571 Mbytes
Step PotEng eatoms 
       0    79440.637    79440.637 
       1    79440.637    79440.637 
Loop time of 0.031239 on 1 procs (1 MPI x 1 OpenMP) for 1 steps with 250 atoms

Minimization stats:
  Stopping criterion = max force evaluations
  Energy initial, next-to-last, final = 
         79440.6368239      79440.6368239      79440.6368239
  Force two-norm initial, final = 2.5092e-11 1.11081e-07
  Force max component initial, final = 2.43983e-12 9.87004e-09
  Final line search alpha, max atom move = 1 9.87004e-09
  Iterations, force evaluations = 1 1

Pair  time (%) = 0.0306451 (98.0989)
Neigh time (%) = 0 (0)
Comm  time (%) = 5.81741e-05 (0.186223)
Outpt time (%) = 0 (0)
Other time (%) = 0.000535727 (1.71493)

Nlocal:    250 ave 250 max 250 min
Histogram: 1 0 0 0 0 0 0 0 0 0
Nghost:    4691 ave 4691 max 4691 min
Histogram: 1 0 0 0 0 0 0 0 0 0
Neighs:    80500 ave 80500 max 80500 min
Histogram: 1 0 0 0 0 0 0 0 0 0
FullNghs:  0 ave 0 max 0 min
Histogram: 1 0 0 0 0 0 0 0 0 0

Total # of neighbors = 80500
Ave neighs/atom = 322
Neighbor list builds = 0
Dangerous builds = 0
variable   E equal "c_eatoms"
variable   N equal count(all)
variable   E_cohesive equal ${E}/${N}
variable   E_cohesive equal 79440.636823912282125/${N}
variable   E_cohesive equal 79440.636823912282125/250
print "${a}	${E_cohesive}" append lat_param.dat
1.3000000000000000444	317.76254729564914214

# ------------------- Loop:   ----------------------------------

clear
WARNING: OMP_NUM_THREADS environment is not set. (../comm.cpp:100)
  using 1 OpenMP thread(s) per MPI task
next            k
jump            input.rose.Fe
# This input file is used to calculate the lattice constant of bcc Fe
# E. Mansouri
# KTH, Nuclear Engineering
# ebrman@kth.se

# ------------------ Initial parameter defenition --------------------

units           metal
boundary        p p p
atom_style      atomic

# ----------------- variable setting -----------------------------------

variable        k loop 200              # define the number of loop
variable        a equal 1.0+0.02*$k   # define the various lattice constant “a”
variable        a equal 1.0+0.02*16   

# ----------------- Bcc Fe supercell setting ---------------------------

lattice         bcc $a
lattice         bcc 1.3200000000000000622
Lattice spacing in x,y,z = 1.32 1.32 1.32
region          box block 0 5 0 5 0 5
create_box      1 box
Created orthogonal box = (0 0 0) to (6.6 6.6 6.6)
  1 by 1 by 1 MPI processor grid
create_atoms    1 box
Created 250 atoms

# ----------------- Define Interatomic Potential ---------------------

pair_style hybrid/overlay eam/alloy eam/fs
pair_coeff * * eam/alloy ../../potentials/FeCr_d.eam.alloy Fe
pair_coeff * * eam/fs ../../potentials/FeCr_s.eam.fs Fe

neighbor 0.3 bin
neigh_modify  delay 1

# ------------------- Calculated properties setting---------------------------

compute peratom all pe/atom
compute eatoms all reduce sum c_peratom
compute csym all centro/atom bcc

# ------------------- Thermal properties output ------------------------------

timestep        0.001
thermo 10
thermo_style custom step pe c_eatoms
dump 1 all custom 200 dump.bcc.Fe id type xs ys zs c_peratom

# ------------------- Minimize the total energy ------------------------------

min_style  cg
minimize   1.0e-20 1.0e-20 1 1
WARNING: Resetting reneighboring criteria during minimization (../min.cpp:173)
Memory usage per processor = 4.66571 Mbytes
Step PotEng eatoms 
       0    72493.829    72493.829 
       1    72493.829    72493.829 
Loop time of 0.044965 on 1 procs (1 MPI x 1 OpenMP) for 1 steps with 250 atoms

Minimization stats:
  Stopping criterion = linesearch alpha is zero
  Energy initial, next-to-last, final = 
         72493.8285276      72493.8285276      72493.8285276
  Force two-norm initial, final = 1.01358e-11 1.01358e-11
  Force max component initial, final = 1.62004e-12 1.62004e-12
  Final line search alpha, max atom move = 0.5 8.10019e-13
  Iterations, force evaluations = 1 2

Pair  time (%) = 0.0443549 (98.6431)
Neigh time (%) = 0 (0)
Comm  time (%) = 8.67844e-05 (0.193004)
Outpt time (%) = 0 (0)
Other time (%) = 0.000523329 (1.16386)

Nlocal:    250 ave 250 max 250 min
Histogram: 1 0 0 0 0 0 0 0 0 0
Nghost:    4691 ave 4691 max 4691 min
Histogram: 1 0 0 0 0 0 0 0 0 0
Neighs:    76000 ave 76000 max 76000 min
Histogram: 1 0 0 0 0 0 0 0 0 0
FullNghs:  0 ave 0 max 0 min
Histogram: 1 0 0 0 0 0 0 0 0 0

Total # of neighbors = 76000
Ave neighs/atom = 304
Neighbor list builds = 0
Dangerous builds = 0
variable   E equal "c_eatoms"
variable   N equal count(all)
variable   E_cohesive equal ${E}/${N}
variable   E_cohesive equal 72493.828527565477998/${N}
variable   E_cohesive equal 72493.828527565477998/250
print "${a}	${E_cohesive}" append lat_param.dat
1.3200000000000000622	289.97531411026193382

# ------------------- Loop:   ----------------------------------

clear
WARNING: OMP_NUM_THREADS environment is not set. (../comm.cpp:100)
  using 1 OpenMP thread(s) per MPI task
next            k
jump            input.rose.Fe
# This input file is used to calculate the lattice constant of bcc Fe
# E. Mansouri
# KTH, Nuclear Engineering
# ebrman@kth.se

# ------------------ Initial parameter defenition --------------------

units           metal
boundary        p p p
atom_style      atomic

# ----------------- variable setting -----------------------------------

variable        k loop 200              # define the number of loop
variable        a equal 1.0+0.02*$k   # define the various lattice constant “a”
variable        a equal 1.0+0.02*17   

# ----------------- Bcc Fe supercell setting ---------------------------

lattice         bcc $a
lattice         bcc 1.3400000000000000799
Lattice spacing in x,y,z = 1.34 1.34 1.34
region          box block 0 5 0 5 0 5
create_box      1 box
Created orthogonal box = (0 0 0) to (6.7 6.7 6.7)
  1 by 1 by 1 MPI processor grid
create_atoms    1 box
Created 250 atoms

# ----------------- Define Interatomic Potential ---------------------

pair_style hybrid/overlay eam/alloy eam/fs
pair_coeff * * eam/alloy ../../potentials/FeCr_d.eam.alloy Fe
pair_coeff * * eam/fs ../../potentials/FeCr_s.eam.fs Fe

neighbor 0.3 bin
neigh_modify  delay 1

# ------------------- Calculated properties setting---------------------------

compute peratom all pe/atom
compute eatoms all reduce sum c_peratom
compute csym all centro/atom bcc

# ------------------- Thermal properties output ------------------------------

timestep        0.001
thermo 10
thermo_style custom step pe c_eatoms
dump 1 all custom 200 dump.bcc.Fe id type xs ys zs c_peratom

# ------------------- Minimize the total energy ------------------------------

min_style  cg
minimize   1.0e-20 1.0e-20 1 1
WARNING: Resetting reneighboring criteria during minimization (../min.cpp:173)
Memory usage per processor = 4.66571 Mbytes
Step PotEng eatoms 
       0    66123.208    66123.208 
       1    66123.208    66123.208 
Loop time of 0.044805 on 1 procs (1 MPI x 1 OpenMP) for 1 steps with 250 atoms

Minimization stats:
  Stopping criterion = linesearch alpha is zero
  Energy initial, next-to-last, final = 
         66123.2080917      66123.2080917      66123.2080917
  Force two-norm initial, final = 1.38331e-11 1.38331e-11
  Force max component initial, final = 1.53517e-12 1.53517e-12
  Final line search alpha, max atom move = 0.5 7.67587e-13
  Iterations, force evaluations = 1 2

Pair  time (%) = 0.0442085 (98.6686)
Neigh time (%) = 0 (0)
Comm  time (%) = 8.60691e-05 (0.192097)
Outpt time (%) = 0 (0)
Other time (%) = 0.000510454 (1.13928)

Nlocal:    250 ave 250 max 250 min
Histogram: 1 0 0 0 0 0 0 0 0 0
Nghost:    4691 ave 4691 max 4691 min
Histogram: 1 0 0 0 0 0 0 0 0 0
Neighs:    76000 ave 76000 max 76000 min
Histogram: 1 0 0 0 0 0 0 0 0 0
FullNghs:  0 ave 0 max 0 min
Histogram: 1 0 0 0 0 0 0 0 0 0

Total # of neighbors = 76000
Ave neighs/atom = 304
Neighbor list builds = 0
Dangerous builds = 0
variable   E equal "c_eatoms"
variable   N equal count(all)
variable   E_cohesive equal ${E}/${N}
variable   E_cohesive equal 66123.208091760388925/${N}
variable   E_cohesive equal 66123.208091760388925/250
print "${a}	${E_cohesive}" append lat_param.dat
1.3400000000000000799	264.49283236704155797

# ------------------- Loop:   ----------------------------------

clear
WARNING: OMP_NUM_THREADS environment is not set. (../comm.cpp:100)
  using 1 OpenMP thread(s) per MPI task
next            k
jump            input.rose.Fe
# This input file is used to calculate the lattice constant of bcc Fe
# E. Mansouri
# KTH, Nuclear Engineering
# ebrman@kth.se

# ------------------ Initial parameter defenition --------------------

units           metal
boundary        p p p
atom_style      atomic

# ----------------- variable setting -----------------------------------

variable        k loop 200              # define the number of loop
variable        a equal 1.0+0.02*$k   # define the various lattice constant “a”
variable        a equal 1.0+0.02*18   

# ----------------- Bcc Fe supercell setting ---------------------------

lattice         bcc $a
lattice         bcc 1.3599999999999998757
Lattice spacing in x,y,z = 1.36 1.36 1.36
region          box block 0 5 0 5 0 5
create_box      1 box
Created orthogonal box = (0 0 0) to (6.8 6.8 6.8)
  1 by 1 by 1 MPI processor grid
create_atoms    1 box
Created 250 atoms

# ----------------- Define Interatomic Potential ---------------------

pair_style hybrid/overlay eam/alloy eam/fs
pair_coeff * * eam/alloy ../../potentials/FeCr_d.eam.alloy Fe
pair_coeff * * eam/fs ../../potentials/FeCr_s.eam.fs Fe

neighbor 0.3 bin
neigh_modify  delay 1

# ------------------- Calculated properties setting---------------------------

compute peratom all pe/atom
compute eatoms all reduce sum c_peratom
compute csym all centro/atom bcc

# ------------------- Thermal properties output ------------------------------

timestep        0.001
thermo 10
thermo_style custom step pe c_eatoms
dump 1 all custom 200 dump.bcc.Fe id type xs ys zs c_peratom

# ------------------- Minimize the total energy ------------------------------

min_style  cg
minimize   1.0e-20 1.0e-20 1 1
WARNING: Resetting reneighboring criteria during minimization (../min.cpp:173)
Memory usage per processor = 4.66571 Mbytes
Step PotEng eatoms 
       0    60286.027    60286.027 
       1    60286.027    60286.027 
Loop time of 0.0427811 on 1 procs (1 MPI x 1 OpenMP) for 1 steps with 250 atoms

Minimization stats:
  Stopping criterion = linesearch alpha is zero
  Energy initial, next-to-last, final = 
         60286.0266959      60286.0266959      60286.0266959
  Force two-norm initial, final = 1.91352e-11 1.91352e-11
  Force max component initial, final = 2.05407e-12 2.05407e-12
  Final line search alpha, max atom move = 0.5 1.02703e-12
  Iterations, force evaluations = 1 2

Pair  time (%) = 0.0421948 (98.6296)
Neigh time (%) = 0 (0)
Comm  time (%) = 8.67844e-05 (0.202857)
Outpt time (%) = 0 (0)
Other time (%) = 0.000499487 (1.16754)

Nlocal:    250 ave 250 max 250 min
Histogram: 1 0 0 0 0 0 0 0 0 0
Nghost:    4691 ave 4691 max 4691 min
Histogram: 1 0 0 0 0 0 0 0 0 0
Neighs:    70000 ave 70000 max 70000 min
Histogram: 1 0 0 0 0 0 0 0 0 0
FullNghs:  0 ave 0 max 0 min
Histogram: 1 0 0 0 0 0 0 0 0 0

Total # of neighbors = 70000
Ave neighs/atom = 280
Neighbor list builds = 0
Dangerous builds = 0
variable   E equal "c_eatoms"
variable   N equal count(all)
variable   E_cohesive equal ${E}/${N}
variable   E_cohesive equal 60286.026695941916842/${N}
variable   E_cohesive equal 60286.026695941916842/250
print "${a}	${E_cohesive}" append lat_param.dat
1.3599999999999998757	241.14410678376765418

# ------------------- Loop:   ----------------------------------

clear
WARNING: OMP_NUM_THREADS environment is not set. (../comm.cpp:100)
  using 1 OpenMP thread(s) per MPI task
next            k
jump            input.rose.Fe
# This input file is used to calculate the lattice constant of bcc Fe
# E. Mansouri
# KTH, Nuclear Engineering
# ebrman@kth.se

# ------------------ Initial parameter defenition --------------------

units           metal
boundary        p p p
atom_style      atomic

# ----------------- variable setting -----------------------------------

variable        k loop 200              # define the number of loop
variable        a equal 1.0+0.02*$k   # define the various lattice constant “a”
variable        a equal 1.0+0.02*19   

# ----------------- Bcc Fe supercell setting ---------------------------

lattice         bcc $a
lattice         bcc 1.3799999999999998934
Lattice spacing in x,y,z = 1.38 1.38 1.38
region          box block 0 5 0 5 0 5
create_box      1 box
Created orthogonal box = (0 0 0) to (6.9 6.9 6.9)
  1 by 1 by 1 MPI processor grid
create_atoms    1 box
Created 250 atoms

# ----------------- Define Interatomic Potential ---------------------

pair_style hybrid/overlay eam/alloy eam/fs
pair_coeff * * eam/alloy ../../potentials/FeCr_d.eam.alloy Fe
pair_coeff * * eam/fs ../../potentials/FeCr_s.eam.fs Fe

neighbor 0.3 bin
neigh_modify  delay 1

# ------------------- Calculated properties setting---------------------------

compute peratom all pe/atom
compute eatoms all reduce sum c_peratom
compute csym all centro/atom bcc

# ------------------- Thermal properties output ------------------------------

timestep        0.001
thermo 10
thermo_style custom step pe c_eatoms
dump 1 all custom 200 dump.bcc.Fe id type xs ys zs c_peratom

# ------------------- Minimize the total energy ------------------------------

min_style  cg
minimize   1.0e-20 1.0e-20 1 1
WARNING: Resetting reneighboring criteria during minimization (../min.cpp:173)
Memory usage per processor = 4.66571 Mbytes
Step PotEng eatoms 
       0    54937.904    54937.904 
       1    54937.904    54937.904 
Loop time of 0.041883 on 1 procs (1 MPI x 1 OpenMP) for 1 steps with 250 atoms

Minimization stats:
  Stopping criterion = linesearch alpha is zero
  Energy initial, next-to-last, final = 
         54937.9036009      54937.9036009      54937.9036009
  Force two-norm initial, final = 2.02666e-11 2.02666e-11
  Force max component initial, final = 2.62035e-12 2.62035e-12
  Final line search alpha, max atom move = 0.5 1.31017e-12
  Iterations, force evaluations = 1 2

Pair  time (%) = 0.041292 (98.5888)
Neigh time (%) = 0 (0)
Comm  time (%) = 8.70228e-05 (0.207776)
Outpt time (%) = 0 (0)
Other time (%) = 0.000504017 (1.20339)

Nlocal:    250 ave 250 max 250 min
Histogram: 1 0 0 0 0 0 0 0 0 0
Nghost:    4691 ave 4691 max 4691 min
Histogram: 1 0 0 0 0 0 0 0 0 0
Neighs:    67000 ave 67000 max 67000 min
Histogram: 1 0 0 0 0 0 0 0 0 0
FullNghs:  0 ave 0 max 0 min
Histogram: 1 0 0 0 0 0 0 0 0 0

Total # of neighbors = 67000
Ave neighs/atom = 268
Neighbor list builds = 0
Dangerous builds = 0
variable   E equal "c_eatoms"
variable   N equal count(all)
variable   E_cohesive equal ${E}/${N}
variable   E_cohesive equal 54937.903600943078345/${N}
variable   E_cohesive equal 54937.903600943078345/250
print "${a}	${E_cohesive}" append lat_param.dat
1.3799999999999998934	219.75161440377232225

# ------------------- Loop:   ----------------------------------

clear
WARNING: OMP_NUM_THREADS environment is not set. (../comm.cpp:100)
  using 1 OpenMP thread(s) per MPI task
next            k
jump            input.rose.Fe
# This input file is used to calculate the lattice constant of bcc Fe
# E. Mansouri
# KTH, Nuclear Engineering
# ebrman@kth.se

# ------------------ Initial parameter defenition --------------------

units           metal
boundary        p p p
atom_style      atomic

# ----------------- variable setting -----------------------------------

variable        k loop 200              # define the number of loop
variable        a equal 1.0+0.02*$k   # define the various lattice constant “a”
variable        a equal 1.0+0.02*20   

# ----------------- Bcc Fe supercell setting ---------------------------

lattice         bcc $a
lattice         bcc 1.3999999999999999112
Lattice spacing in x,y,z = 1.4 1.4 1.4
region          box block 0 5 0 5 0 5
create_box      1 box
Created orthogonal box = (0 0 0) to (7 7 7)
  1 by 1 by 1 MPI processor grid
create_atoms    1 box
Created 250 atoms

# ----------------- Define Interatomic Potential ---------------------

pair_style hybrid/overlay eam/alloy eam/fs
pair_coeff * * eam/alloy ../../potentials/FeCr_d.eam.alloy Fe
pair_coeff * * eam/fs ../../potentials/FeCr_s.eam.fs Fe

neighbor 0.3 bin
neigh_modify  delay 1

# ------------------- Calculated properties setting---------------------------

compute peratom all pe/atom
compute eatoms all reduce sum c_peratom
compute csym all centro/atom bcc

# ------------------- Thermal properties output ------------------------------

timestep        0.001
thermo 10
thermo_style custom step pe c_eatoms
dump 1 all custom 200 dump.bcc.Fe id type xs ys zs c_peratom

# ------------------- Minimize the total energy ------------------------------

min_style  cg
minimize   1.0e-20 1.0e-20 1 1
WARNING: Resetting reneighboring criteria during minimization (../min.cpp:173)
Memory usage per processor = 4.64717 Mbytes
Step PotEng eatoms 
       0    50037.119    50037.119 
       1    50037.119    50037.119 
Loop time of 0.039005 on 1 procs (1 MPI x 1 OpenMP) for 1 steps with 250 atoms

Minimization stats:
  Stopping criterion = linesearch alpha is zero
  Energy initial, next-to-last, final = 
         50037.1190613      50037.1190613      50037.1190613
  Force two-norm initial, final = 1.23233e-11 1.23233e-11
  Force max component initial, final = 1.39913e-12 1.39913e-12
  Final line search alpha, max atom move = 0.5 6.99565e-13
  Iterations, force evaluations = 1 2

Pair  time (%) = 0.038434 (98.5361)
Neigh time (%) = 0 (0)
Comm  time (%) = 7.70092e-05 (0.197434)
Outpt time (%) = 0 (0)
Other time (%) = 0.000494003 (1.26651)

Nlocal:    250 ave 250 max 250 min
Histogram: 1 0 0 0 0 0 0 0 0 0
Nghost:    4144 ave 4144 max 4144 min
Histogram: 1 0 0 0 0 0 0 0 0 0
Neighs:    66700 ave 66700 max 66700 min
Histogram: 1 0 0 0 0 0 0 0 0 0
FullNghs:  0 ave 0 max 0 min
Histogram: 1 0 0 0 0 0 0 0 0 0

Total # of neighbors = 66700
Ave neighs/atom = 266.8
Neighbor list builds = 0
Dangerous builds = 0
variable   E equal "c_eatoms"
variable   N equal count(all)
variable   E_cohesive equal ${E}/${N}
variable   E_cohesive equal 50037.119061350938864/${N}
variable   E_cohesive equal 50037.119061350938864/250
print "${a}	${E_cohesive}" append lat_param.dat
1.3999999999999999112	200.14847624540374227

# ------------------- Loop:   ----------------------------------

clear
WARNING: OMP_NUM_THREADS environment is not set. (../comm.cpp:100)
  using 1 OpenMP thread(s) per MPI task
next            k
jump            input.rose.Fe
# This input file is used to calculate the lattice constant of bcc Fe
# E. Mansouri
# KTH, Nuclear Engineering
# ebrman@kth.se

# ------------------ Initial parameter defenition --------------------

units           metal
boundary        p p p
atom_style      atomic

# ----------------- variable setting -----------------------------------

variable        k loop 200              # define the number of loop
variable        a equal 1.0+0.02*$k   # define the various lattice constant “a”
variable        a equal 1.0+0.02*21   

# ----------------- Bcc Fe supercell setting ---------------------------

lattice         bcc $a
lattice         bcc 1.4199999999999999289
Lattice spacing in x,y,z = 1.42 1.42 1.42
region          box block 0 5 0 5 0 5
create_box      1 box
Created orthogonal box = (0 0 0) to (7.1 7.1 7.1)
  1 by 1 by 1 MPI processor grid
create_atoms    1 box
Created 250 atoms

# ----------------- Define Interatomic Potential ---------------------

pair_style hybrid/overlay eam/alloy eam/fs
pair_coeff * * eam/alloy ../../potentials/FeCr_d.eam.alloy Fe
pair_coeff * * eam/fs ../../potentials/FeCr_s.eam.fs Fe

neighbor 0.3 bin
neigh_modify  delay 1

# ------------------- Calculated properties setting---------------------------

compute peratom all pe/atom
compute eatoms all reduce sum c_peratom
compute csym all centro/atom bcc

# ------------------- Thermal properties output ------------------------------

timestep        0.001
thermo 10
thermo_style custom step pe c_eatoms
dump 1 all custom 200 dump.bcc.Fe id type xs ys zs c_peratom

# ------------------- Minimize the total energy ------------------------------

min_style  cg
minimize   1.0e-20 1.0e-20 1 1
WARNING: Resetting reneighboring criteria during minimization (../min.cpp:173)
Memory usage per processor = 4.60737 Mbytes
Step PotEng eatoms 
       0    45545.626    45545.626 
       1    45545.626    45545.626 
Loop time of 0.0372331 on 1 procs (1 MPI x 1 OpenMP) for 1 steps with 250 atoms

Minimization stats:
  Stopping criterion = linesearch alpha is zero
  Energy initial, next-to-last, final = 
         45545.6256764      45545.6256764      45545.6256764
  Force two-norm initial, final = 2.60639e-12 2.60639e-12
  Force max component initial, final = 4.42923e-13 4.42923e-13
  Final line search alpha, max atom move = 0.5 2.21462e-13
  Iterations, force evaluations = 1 2

Pair  time (%) = 0.0366702 (98.4882)
Neigh time (%) = 0 (0)
Comm  time (%) = 7.00951e-05 (0.18826)
Outpt time (%) = 0 (0)
Other time (%) = 0.000492811 (1.32358)

Nlocal:    250 ave 250 max 250 min
Histogram: 1 0 0 0 0 0 0 0 0 0
Nghost:    3675 ave 3675 max 3675 min
Histogram: 1 0 0 0 0 0 0 0 0 0
Neighs:    66250 ave 66250 max 66250 min
Histogram: 1 0 0 0 0 0 0 0 0 0
FullNghs:  0 ave 0 max 0 min
Histogram: 1 0 0 0 0 0 0 0 0 0

Total # of neighbors = 66250
Ave neighs/atom = 265
Neighbor list builds = 0
Dangerous builds = 0
variable   E equal "c_eatoms"
variable   N equal count(all)
variable   E_cohesive equal ${E}/${N}
variable   E_cohesive equal 45545.625676383417158/${N}
variable   E_cohesive equal 45545.625676383417158/250
print "${a}	${E_cohesive}" append lat_param.dat
1.4199999999999999289	182.18250270553366477

# ------------------- Loop:   ----------------------------------

clear
WARNING: OMP_NUM_THREADS environment is not set. (../comm.cpp:100)
  using 1 OpenMP thread(s) per MPI task
next            k
jump            input.rose.Fe
# This input file is used to calculate the lattice constant of bcc Fe
# E. Mansouri
# KTH, Nuclear Engineering
# ebrman@kth.se

# ------------------ Initial parameter defenition --------------------

units           metal
boundary        p p p
atom_style      atomic

# ----------------- variable setting -----------------------------------

variable        k loop 200              # define the number of loop
variable        a equal 1.0+0.02*$k   # define the various lattice constant “a”
variable        a equal 1.0+0.02*22   

# ----------------- Bcc Fe supercell setting ---------------------------

lattice         bcc $a
lattice         bcc 1.4399999999999999467
Lattice spacing in x,y,z = 1.44 1.44 1.44
region          box block 0 5 0 5 0 5
create_box      1 box
Created orthogonal box = (0 0 0) to (7.2 7.2 7.2)
  1 by 1 by 1 MPI processor grid
create_atoms    1 box
Created 250 atoms

# ----------------- Define Interatomic Potential ---------------------

pair_style hybrid/overlay eam/alloy eam/fs
pair_coeff * * eam/alloy ../../potentials/FeCr_d.eam.alloy Fe
pair_coeff * * eam/fs ../../potentials/FeCr_s.eam.fs Fe

neighbor 0.3 bin
neigh_modify  delay 1

# ------------------- Calculated properties setting---------------------------

compute peratom all pe/atom
compute eatoms all reduce sum c_peratom
compute csym all centro/atom bcc

# ------------------- Thermal properties output ------------------------------

timestep        0.001
thermo 10
thermo_style custom step pe c_eatoms
dump 1 all custom 200 dump.bcc.Fe id type xs ys zs c_peratom

# ------------------- Minimize the total energy ------------------------------

min_style  cg
minimize   1.0e-20 1.0e-20 1 1
WARNING: Resetting reneighboring criteria during minimization (../min.cpp:173)
Memory usage per processor = 4.60737 Mbytes
Step PotEng eatoms 
       0    41417.666    41417.666 
       1    41417.666    41417.666 
Loop time of 0.025053 on 1 procs (1 MPI x 1 OpenMP) for 1 steps with 250 atoms

Minimization stats:
  Stopping criterion = max force evaluations
  Energy initial, next-to-last, final = 
         41417.6657994      41417.6657994      41417.6657994
  Force two-norm initial, final = 1.31858e-11 3.44837e-08
  Force max component initial, final = 1.43033e-12 3.60785e-09
  Final line search alpha, max atom move = 1 3.60785e-09
  Iterations, force evaluations = 1 1

Pair  time (%) = 0.0244951 (97.7731)
Neigh time (%) = 0 (0)
Comm  time (%) = 4.81606e-05 (0.192234)
Outpt time (%) = 0 (0)
Other time (%) = 0.000509739 (2.03464)

Nlocal:    250 ave 250 max 250 min
Histogram: 1 0 0 0 0 0 0 0 0 0
Nghost:    3675 ave 3675 max 3675 min
Histogram: 1 0 0 0 0 0 0 0 0 0
Neighs:    66250 ave 66250 max 66250 min
Histogram: 1 0 0 0 0 0 0 0 0 0
FullNghs:  0 ave 0 max 0 min
Histogram: 1 0 0 0 0 0 0 0 0 0

Total # of neighbors = 66250
Ave neighs/atom = 265
Neighbor list builds = 0
Dangerous builds = 0
variable   E equal "c_eatoms"
variable   N equal count(all)
variable   E_cohesive equal ${E}/${N}
variable   E_cohesive equal 41417.665799426315061/${N}
variable   E_cohesive equal 41417.665799426315061/250
print "${a}	${E_cohesive}" append lat_param.dat
1.4399999999999999467	165.67066319770526661

# ------------------- Loop:   ----------------------------------

clear
WARNING: OMP_NUM_THREADS environment is not set. (../comm.cpp:100)
  using 1 OpenMP thread(s) per MPI task
next            k
jump            input.rose.Fe
# This input file is used to calculate the lattice constant of bcc Fe
# E. Mansouri
# KTH, Nuclear Engineering
# ebrman@kth.se

# ------------------ Initial parameter defenition --------------------

units           metal
boundary        p p p
atom_style      atomic

# ----------------- variable setting -----------------------------------

variable        k loop 200              # define the number of loop
variable        a equal 1.0+0.02*$k   # define the various lattice constant “a”
variable        a equal 1.0+0.02*23   

# ----------------- Bcc Fe supercell setting ---------------------------

lattice         bcc $a
lattice         bcc 1.4599999999999999645
Lattice spacing in x,y,z = 1.46 1.46 1.46
region          box block 0 5 0 5 0 5
create_box      1 box
Created orthogonal box = (0 0 0) to (7.3 7.3 7.3)
  1 by 1 by 1 MPI processor grid
create_atoms    1 box
Created 250 atoms

# ----------------- Define Interatomic Potential ---------------------

pair_style hybrid/overlay eam/alloy eam/fs
pair_coeff * * eam/alloy ../../potentials/FeCr_d.eam.alloy Fe
pair_coeff * * eam/fs ../../potentials/FeCr_s.eam.fs Fe

neighbor 0.3 bin
neigh_modify  delay 1

# ------------------- Calculated properties setting---------------------------

compute peratom all pe/atom
compute eatoms all reduce sum c_peratom
compute csym all centro/atom bcc

# ------------------- Thermal properties output ------------------------------

timestep        0.001
thermo 10
thermo_style custom step pe c_eatoms
dump 1 all custom 200 dump.bcc.Fe id type xs ys zs c_peratom

# ------------------- Minimize the total energy ------------------------------

min_style  cg
minimize   1.0e-20 1.0e-20 1 1
WARNING: Resetting reneighboring criteria during minimization (../min.cpp:173)
Memory usage per processor = 4.60737 Mbytes
Step PotEng eatoms 
       0    37621.344    37621.344 
       1    37621.344    37621.344 
Loop time of 0.0342021 on 1 procs (1 MPI x 1 OpenMP) for 1 steps with 250 atoms

Minimization stats:
  Stopping criterion = linesearch alpha is zero
  Energy initial, next-to-last, final = 
         37621.3439364      37621.3439364      37621.3439364
  Force two-norm initial, final = 1.45767e-11 1.45767e-11
  Force max component initial, final = 1.38178e-12 1.38178e-12
  Final line search alpha, max atom move = 0.5 6.90892e-13
  Iterations, force evaluations = 1 2

Pair  time (%) = 0.0336401 (98.357)
Neigh time (%) = 0 (0)
Comm  time (%) = 7.03335e-05 (0.205641)
Outpt time (%) = 0 (0)
Other time (%) = 0.000491619 (1.43739)

Nlocal:    250 ave 250 max 250 min
Histogram: 1 0 0 0 0 0 0 0 0 0
Nghost:    3675 ave 3675 max 3675 min
Histogram: 1 0 0 0 0 0 0 0 0 0
Neighs:    57250 ave 57250 max 57250 min
Histogram: 1 0 0 0 0 0 0 0 0 0
FullNghs:  0 ave 0 max 0 min
Histogram: 1 0 0 0 0 0 0 0 0 0

Total # of neighbors = 57250
Ave neighs/atom = 229
Neighbor list builds = 0
Dangerous builds = 0
variable   E equal "c_eatoms"
variable   N equal count(all)
variable   E_cohesive equal ${E}/${N}
variable   E_cohesive equal 37621.343936400066013/${N}
variable   E_cohesive equal 37621.343936400066013/250
print "${a}	${E_cohesive}" append lat_param.dat
1.4599999999999999645	150.48537574560026542

# ------------------- Loop:   ----------------------------------

clear
WARNING: OMP_NUM_THREADS environment is not set. (../comm.cpp:100)
  using 1 OpenMP thread(s) per MPI task
next            k
jump            input.rose.Fe
# This input file is used to calculate the lattice constant of bcc Fe
# E. Mansouri
# KTH, Nuclear Engineering
# ebrman@kth.se

# ------------------ Initial parameter defenition --------------------

units           metal
boundary        p p p
atom_style      atomic

# ----------------- variable setting -----------------------------------

variable        k loop 200              # define the number of loop
variable        a equal 1.0+0.02*$k   # define the various lattice constant “a”
variable        a equal 1.0+0.02*24   

# ----------------- Bcc Fe supercell setting ---------------------------

lattice         bcc $a
lattice         bcc 1.4799999999999999822
Lattice spacing in x,y,z = 1.48 1.48 1.48
region          box block 0 5 0 5 0 5
create_box      1 box
Created orthogonal box = (0 0 0) to (7.4 7.4 7.4)
  1 by 1 by 1 MPI processor grid
create_atoms    1 box
Created 250 atoms

# ----------------- Define Interatomic Potential ---------------------

pair_style hybrid/overlay eam/alloy eam/fs
pair_coeff * * eam/alloy ../../potentials/FeCr_d.eam.alloy Fe
[...]

# ----------------- Bcc Fe supercell setting ---------------------------

lattice         bcc $a
lattice         bcc 4.9000000000000003553
Lattice spacing in x,y,z = 4.9 4.9 4.9
region          box block 0 5 0 5 0 5
create_box      1 box
Created orthogonal box = (0 0 0) to (24.5 24.5 24.5)
  1 by 1 by 1 MPI processor grid
create_atoms    1 box
Created 250 atoms

# ----------------- Define Interatomic Potential ---------------------

pair_style hybrid/overlay eam/alloy eam/fs
pair_coeff * * eam/alloy ../../potentials/FeCr_d.eam.alloy Fe
pair_coeff * * eam/fs ../../potentials/FeCr_s.eam.fs Fe

neighbor 0.3 bin
neigh_modify  delay 1

# ------------------- Calculated properties setting---------------------------

compute peratom all pe/atom
compute eatoms all reduce sum c_peratom
compute csym all centro/atom bcc

# ------------------- Thermal properties output ------------------------------

timestep        0.001
thermo 10
thermo_style custom step pe c_eatoms
dump 1 all custom 200 dump.bcc.Fe id type xs ys zs c_peratom

# ------------------- Minimize the total energy ------------------------------

min_style  cg
minimize   1.0e-20 1.0e-20 1 1
WARNING: Resetting reneighboring criteria during minimization (../min.cpp:173)
Memory usage per processor = 4.46444 Mbytes
Step PotEng eatoms 
       0   -13.044415   -13.044415 
       1   -13.044415   -13.044415 
Loop time of 0.00159502 on 1 procs (1 MPI x 1 OpenMP) for 1 steps with 250 atoms

Minimization stats:
  Stopping criterion = linesearch alpha is zero
  Energy initial, next-to-last, final = 
        -13.0444153226     -13.0444153226     -13.0444153226
  Force two-norm initial, final = 5.34029e-15 5.34029e-15
  Force max component initial, final = 7.73687e-16 7.73687e-16
  Final line search alpha, max atom move = 0.5 3.86843e-16
  Iterations, force evaluations = 1 2

Pair  time (%) = 0.00114274 (71.6442)
Neigh time (%) = 0 (0)
Comm  time (%) = 1.57356e-05 (0.986547)
Outpt time (%) = 0 (0)
Other time (%) = 0.000436544 (27.3692)

Nlocal:    250 ave 250 max 250 min
Histogram: 1 0 0 0 0 0 0 0 0 0
Nghost:    605 ave 605 max 605 min
Histogram: 1 0 0 0 0 0 0 0 0 0
Neighs:    1750 ave 1750 max 1750 min
Histogram: 1 0 0 0 0 0 0 0 0 0
FullNghs:  0 ave 0 max 0 min
Histogram: 1 0 0 0 0 0 0 0 0 0

Total # of neighbors = 1750
Ave neighs/atom = 7
Neighbor list builds = 0
Dangerous builds = 0
variable   E equal "c_eatoms"
variable   N equal count(all)
variable   E_cohesive equal ${E}/${N}
variable   E_cohesive equal -13.044415322611698116/${N}
variable   E_cohesive equal -13.044415322611698116/250
print "${a}	${E_cohesive}" append lat_param.dat
4.9000000000000003553	-0.052177661290446791797

# ------------------- Loop:   ----------------------------------

clear
WARNING: OMP_NUM_THREADS environment is not set. (../comm.cpp:100)
  using 1 OpenMP thread(s) per MPI task
next            k
jump            input.rose.Fe
# This input file is used to calculate the lattice constant of bcc Fe
# E. Mansouri
# KTH, Nuclear Engineering
# ebrman@kth.se

# ------------------ Initial parameter defenition --------------------

units           metal
boundary        p p p
atom_style      atomic

# ----------------- variable setting -----------------------------------

variable        k loop 200              # define the number of loop
variable        a equal 1.0+0.02*$k   # define the various lattice constant “a”
variable        a equal 1.0+0.02*196   

# ----------------- Bcc Fe supercell setting ---------------------------

lattice         bcc $a
lattice         bcc 4.9199999999999999289
Lattice spacing in x,y,z = 4.92 4.92 4.92
region          box block 0 5 0 5 0 5
create_box      1 box
Created orthogonal box = (0 0 0) to (24.6 24.6 24.6)
  1 by 1 by 1 MPI processor grid
create_atoms    1 box
Created 250 atoms

# ----------------- Define Interatomic Potential ---------------------

pair_style hybrid/overlay eam/alloy eam/fs
pair_coeff * * eam/alloy ../../potentials/FeCr_d.eam.alloy Fe
pair_coeff * * eam/fs ../../potentials/FeCr_s.eam.fs Fe

neighbor 0.3 bin
neigh_modify  delay 1

# ------------------- Calculated properties setting---------------------------

compute peratom all pe/atom
compute eatoms all reduce sum c_peratom
compute csym all centro/atom bcc

# ------------------- Thermal properties output ------------------------------

timestep        0.001
thermo 10
thermo_style custom step pe c_eatoms
dump 1 all custom 200 dump.bcc.Fe id type xs ys zs c_peratom

# ------------------- Minimize the total energy ------------------------------

min_style  cg
minimize   1.0e-20 1.0e-20 1 1
WARNING: Resetting reneighboring criteria during minimization (../min.cpp:173)
Memory usage per processor = 4.46444 Mbytes
Step PotEng eatoms 
       0   -12.111186   -12.111186 
       1   -12.111186   -12.111186 
Loop time of 0.00160408 on 1 procs (1 MPI x 1 OpenMP) for 1 steps with 250 atoms

Minimization stats:
  Stopping criterion = linesearch alpha is zero
  Energy initial, next-to-last, final = 
        -12.1111855987     -12.1111855987     -12.1111855987
  Force two-norm initial, final = 6.34533e-15 6.34533e-15
  Force max component initial, final = 7.25114e-16 7.25114e-16
  Final line search alpha, max atom move = 0.5 3.62557e-16
  Iterations, force evaluations = 1 2

Pair  time (%) = 0.00114989 (71.6855)
Neigh time (%) = 0 (0)
Comm  time (%) = 1.3113e-05 (0.817479)
Outpt time (%) = 0 (0)
Other time (%) = 0.000441074 (27.497)

Nlocal:    250 ave 250 max 250 min
Histogram: 1 0 0 0 0 0 0 0 0 0
Nghost:    605 ave 605 max 605 min
Histogram: 1 0 0 0 0 0 0 0 0 0
Neighs:    1750 ave 1750 max 1750 min
Histogram: 1 0 0 0 0 0 0 0 0 0
FullNghs:  0 ave 0 max 0 min
Histogram: 1 0 0 0 0 0 0 0 0 0

Total # of neighbors = 1750
Ave neighs/atom = 7
Neighbor list builds = 0
Dangerous builds = 0
variable   E equal "c_eatoms"
variable   N equal count(all)
variable   E_cohesive equal ${E}/${N}
variable   E_cohesive equal -12.111185598680826558/${N}
variable   E_cohesive equal -12.111185598680826558/250
print "${a}	${E_cohesive}" append lat_param.dat
4.9199999999999999289	-0.048444742394723308565

# ------------------- Loop:   ----------------------------------

clear
WARNING: OMP_NUM_THREADS environment is not set. (../comm.cpp:100)
  using 1 OpenMP thread(s) per MPI task
next            k
jump            input.rose.Fe
# This input file is used to calculate the lattice constant of bcc Fe
# E. Mansouri
# KTH, Nuclear Engineering
# ebrman@kth.se

# ------------------ Initial parameter defenition --------------------

units           metal
boundary        p p p
atom_style      atomic

# ----------------- variable setting -----------------------------------

variable        k loop 200              # define the number of loop
variable        a equal 1.0+0.02*$k   # define the various lattice constant “a”
variable        a equal 1.0+0.02*197   

# ----------------- Bcc Fe supercell setting ---------------------------

lattice         bcc $a
lattice         bcc 4.9399999999999995026
Lattice spacing in x,y,z = 4.94 4.94 4.94
region          box block 0 5 0 5 0 5
create_box      1 box
Created orthogonal box = (0 0 0) to (24.7 24.7 24.7)
  1 by 1 by 1 MPI processor grid
create_atoms    1 box
Created 250 atoms

# ----------------- Define Interatomic Potential ---------------------

pair_style hybrid/overlay eam/alloy eam/fs
pair_coeff * * eam/alloy ../../potentials/FeCr_d.eam.alloy Fe
pair_coeff * * eam/fs ../../potentials/FeCr_s.eam.fs Fe

neighbor 0.3 bin
neigh_modify  delay 1

# ------------------- Calculated properties setting---------------------------

compute peratom all pe/atom
compute eatoms all reduce sum c_peratom
compute csym all centro/atom bcc

# ------------------- Thermal properties output ------------------------------

timestep        0.001
thermo 10
thermo_style custom step pe c_eatoms
dump 1 all custom 200 dump.bcc.Fe id type xs ys zs c_peratom

# ------------------- Minimize the total energy ------------------------------

min_style  cg
minimize   1.0e-20 1.0e-20 1 1
WARNING: Resetting reneighboring criteria during minimization (../min.cpp:173)
Memory usage per processor = 4.46444 Mbytes
Step PotEng eatoms 
       0   -11.232629   -11.232629 
       1   -11.232629   -11.232629 
Loop time of 0.00165296 on 1 procs (1 MPI x 1 OpenMP) for 1 steps with 250 atoms

Minimization stats:
  Stopping criterion = linesearch alpha is zero
  Energy initial, next-to-last, final = 
        -11.2326292055     -11.2326292055     -11.2326292055
  Force two-norm initial, final = 6.11561e-15 6.11561e-15
  Force max component initial, final = 7.42462e-16 7.42462e-16
  Final line search alpha, max atom move = 0.5 3.71231e-16
  Iterations, force evaluations = 1 2

Pair  time (%) = 0.00118899 (71.9313)
Neigh time (%) = 0 (0)
Comm  time (%) = 1.40667e-05 (0.851002)
Outpt time (%) = 0 (0)
Other time (%) = 0.000449896 (27.2177)

Nlocal:    250 ave 250 max 250 min
Histogram: 1 0 0 0 0 0 0 0 0 0
Nghost:    605 ave 605 max 605 min
Histogram: 1 0 0 0 0 0 0 0 0 0
Neighs:    1750 ave 1750 max 1750 min
Histogram: 1 0 0 0 0 0 0 0 0 0
FullNghs:  0 ave 0 max 0 min
Histogram: 1 0 0 0 0 0 0 0 0 0

Total # of neighbors = 1750
Ave neighs/atom = 7
Neighbor list builds = 0
Dangerous builds = 0
variable   E equal "c_eatoms"
variable   N equal count(all)
variable   E_cohesive equal ${E}/${N}
variable   E_cohesive equal -11.232629205510047399/${N}
variable   E_cohesive equal -11.232629205510047399/250
print "${a}	${E_cohesive}" append lat_param.dat
4.9399999999999995026	-0.044930516822040189595

# ------------------- Loop:   ----------------------------------

clear
WARNING: OMP_NUM_THREADS environment is not set. (../comm.cpp:100)
  using 1 OpenMP thread(s) per MPI task
next            k
jump            input.rose.Fe
# This input file is used to calculate the lattice constant of bcc Fe
# E. Mansouri
# KTH, Nuclear Engineering
# ebrman@kth.se

# ------------------ Initial parameter defenition --------------------

units           metal
boundary        p p p
atom_style      atomic

# ----------------- variable setting -----------------------------------

variable        k loop 200              # define the number of loop
variable        a equal 1.0+0.02*$k   # define the various lattice constant “a”
variable        a equal 1.0+0.02*198   

# ----------------- Bcc Fe supercell setting ---------------------------

lattice         bcc $a
lattice         bcc 4.9599999999999999645
Lattice spacing in x,y,z = 4.96 4.96 4.96
region          box block 0 5 0 5 0 5
create_box      1 box
Created orthogonal box = (0 0 0) to (24.8 24.8 24.8)
  1 by 1 by 1 MPI processor grid
create_atoms    1 box
Created 250 atoms

# ----------------- Define Interatomic Potential ---------------------

pair_style hybrid/overlay eam/alloy eam/fs
pair_coeff * * eam/alloy ../../potentials/FeCr_d.eam.alloy Fe
pair_coeff * * eam/fs ../../potentials/FeCr_s.eam.fs Fe

neighbor 0.3 bin
neigh_modify  delay 1

# ------------------- Calculated properties setting---------------------------

compute peratom all pe/atom
compute eatoms all reduce sum c_peratom
compute csym all centro/atom bcc

# ------------------- Thermal properties output ------------------------------

timestep        0.001
thermo 10
thermo_style custom step pe c_eatoms
dump 1 all custom 200 dump.bcc.Fe id type xs ys zs c_peratom

# ------------------- Minimize the total energy ------------------------------

min_style  cg
minimize   1.0e-20 1.0e-20 1 1
WARNING: Resetting reneighboring criteria during minimization (../min.cpp:173)
Memory usage per processor = 4.46444 Mbytes
Step PotEng eatoms 
       0   -10.406826   -10.406826 
       1   -10.406826   -10.406826 
Loop time of 0.00162315 on 1 procs (1 MPI x 1 OpenMP) for 1 steps with 250 atoms

Minimization stats:
  Stopping criterion = linesearch alpha is zero
  Energy initial, next-to-last, final = 
        -10.4068257997     -10.4068257997     -10.4068257997
  Force two-norm initial, final = 6.43101e-15 6.43101e-15
  Force max component initial, final = 6.98226e-16 6.98226e-16
  Final line search alpha, max atom move = 0.5 3.49113e-16
  Iterations, force evaluations = 1 2

Pair  time (%) = 0.00114989 (70.8431)
Neigh time (%) = 0 (0)
Comm  time (%) = 1.43051e-05 (0.881316)
Outpt time (%) = 0 (0)
Other time (%) = 0.000458956 (28.2756)

Nlocal:    250 ave 250 max 250 min
Histogram: 1 0 0 0 0 0 0 0 0 0
Nghost:    605 ave 605 max 605 min
Histogram: 1 0 0 0 0 0 0 0 0 0
Neighs:    1750 ave 1750 max 1750 min
Histogram: 1 0 0 0 0 0 0 0 0 0
FullNghs:  0 ave 0 max 0 min
Histogram: 1 0 0 0 0 0 0 0 0 0

Total # of neighbors = 1750
Ave neighs/atom = 7
Neighbor list builds = 0
Dangerous builds = 0
variable   E equal "c_eatoms"
variable   N equal count(all)
variable   E_cohesive equal ${E}/${N}
variable   E_cohesive equal -10.406825799723568693/${N}
variable   E_cohesive equal -10.406825799723568693/250
print "${a}	${E_cohesive}" append lat_param.dat
4.9599999999999999645	-0.041627303198894273495

# ------------------- Loop:   ----------------------------------

clear
WARNING: OMP_NUM_THREADS environment is not set. (../comm.cpp:100)
  using 1 OpenMP thread(s) per MPI task
next            k
jump            input.rose.Fe
# This input file is used to calculate the lattice constant of bcc Fe
# E. Mansouri
# KTH, Nuclear Engineering
# ebrman@kth.se

# ------------------ Initial parameter defenition --------------------

units           metal
boundary        p p p
atom_style      atomic

# ----------------- variable setting -----------------------------------

variable        k loop 200              # define the number of loop
variable        a equal 1.0+0.02*$k   # define the various lattice constant “a”
variable        a equal 1.0+0.02*199   

# ----------------- Bcc Fe supercell setting ---------------------------

lattice         bcc $a
lattice         bcc 4.9800000000000004263
Lattice spacing in x,y,z = 4.98 4.98 4.98
region          box block 0 5 0 5 0 5
create_box      1 box
Created orthogonal box = (0 0 0) to (24.9 24.9 24.9)
  1 by 1 by 1 MPI processor grid
create_atoms    1 box
Created 250 atoms

# ----------------- Define Interatomic Potential ---------------------

pair_style hybrid/overlay eam/alloy eam/fs
pair_coeff * * eam/alloy ../../potentials/FeCr_d.eam.alloy Fe
pair_coeff * * eam/fs ../../potentials/FeCr_s.eam.fs Fe

neighbor 0.3 bin
neigh_modify  delay 1

# ------------------- Calculated properties setting---------------------------

compute peratom all pe/atom
compute eatoms all reduce sum c_peratom
compute csym all centro/atom bcc

# ------------------- Thermal properties output ------------------------------

timestep        0.001
thermo 10
thermo_style custom step pe c_eatoms
dump 1 all custom 200 dump.bcc.Fe id type xs ys zs c_peratom

# ------------------- Minimize the total energy ------------------------------

min_style  cg
minimize   1.0e-20 1.0e-20 1 1
WARNING: Resetting reneighboring criteria during minimization (../min.cpp:173)
Memory usage per processor = 4.46444 Mbytes
Step PotEng eatoms 
       0    -9.631855    -9.631855 
       1    -9.631855    -9.631855 
Loop time of 0.00160098 on 1 procs (1 MPI x 1 OpenMP) for 1 steps with 250 atoms

Minimization stats:
  Stopping criterion = linesearch alpha is zero
  Energy initial, next-to-last, final = 
        -9.63185503801     -9.63185503801     -9.63185503801
  Force two-norm initial, final = 9.9857e-15 9.9857e-15
  Force max component initial, final = 8.46545e-16 8.46545e-16
  Final line search alpha, max atom move = 0.5 4.23273e-16
  Iterations, force evaluations = 1 2

Pair  time (%) = 0.00114989 (71.8243)
Neigh time (%) = 0 (0)
Comm  time (%) = 1.57356e-05 (0.982874)
Outpt time (%) = 0 (0)
Other time (%) = 0.000435352 (27.1929)

Nlocal:    250 ave 250 max 250 min
Histogram: 1 0 0 0 0 0 0 0 0 0
Nghost:    605 ave 605 max 605 min
Histogram: 1 0 0 0 0 0 0 0 0 0
Neighs:    1750 ave 1750 max 1750 min
Histogram: 1 0 0 0 0 0 0 0 0 0
FullNghs:  0 ave 0 max 0 min
Histogram: 1 0 0 0 0 0 0 0 0 0

Total # of neighbors = 1750
Ave neighs/atom = 7
Neighbor list builds = 0
Dangerous builds = 0
variable   E equal "c_eatoms"
variable   N equal count(all)
variable   E_cohesive equal ${E}/${N}
variable   E_cohesive equal -9.6318550380056233706/${N}
variable   E_cohesive equal -9.6318550380056233706/250
print "${a}	${E_cohesive}" append lat_param.dat
4.9800000000000004263	-0.03852742015202249154

# ------------------- Loop:   ----------------------------------

clear
WARNING: OMP_NUM_THREADS environment is not set. (../comm.cpp:100)
  using 1 OpenMP thread(s) per MPI task
next            k
jump            input.rose.Fe
# This input file is used to calculate the lattice constant of bcc Fe
# E. Mansouri
# KTH, Nuclear Engineering
# ebrman@kth.se

# ------------------ Initial parameter defenition --------------------

units           metal
boundary        p p p
atom_style      atomic

# ----------------- variable setting -----------------------------------

variable        k loop 200              # define the number of loop
variable        a equal 1.0+0.02*$k   # define the various lattice constant “a”
variable        a equal 1.0+0.02*200   

# ----------------- Bcc Fe supercell setting ---------------------------

lattice         bcc $a
lattice         bcc 5
Lattice spacing in x,y,z = 5 5 5
region          box block 0 5 0 5 0 5
create_box      1 box
Created orthogonal box = (0 0 0) to (25 25 25)
  1 by 1 by 1 MPI processor grid
create_atoms    1 box
Created 250 atoms

# ----------------- Define Interatomic Potential ---------------------

pair_style hybrid/overlay eam/alloy eam/fs
pair_coeff * * eam/alloy ../../potentials/FeCr_d.eam.alloy Fe
pair_coeff * * eam/fs ../../potentials/FeCr_s.eam.fs Fe

neighbor 0.3 bin
neigh_modify  delay 1

# ------------------- Calculated properties setting---------------------------

compute peratom all pe/atom
compute eatoms all reduce sum c_peratom
compute csym all centro/atom bcc

# ------------------- Thermal properties output ------------------------------

timestep        0.001
thermo 10
thermo_style custom step pe c_eatoms
dump 1 all custom 200 dump.bcc.Fe id type xs ys zs c_peratom

# ------------------- Minimize the total energy ------------------------------

min_style  cg
minimize   1.0e-20 1.0e-20 1 1
WARNING: Resetting reneighboring criteria during minimization (../min.cpp:173)
Memory usage per processor = 4.46444 Mbytes
Step PotEng eatoms 
       0   -8.9057966   -8.9057966 
       1   -8.9057966   -8.9057966 
Loop time of 0.001616 on 1 procs (1 MPI x 1 OpenMP) for 1 steps with 250 atoms

Minimization stats:
  Stopping criterion = linesearch alpha is zero
  Energy initial, next-to-last, final = 
        -8.90579657698     -8.90579657698     -8.90579657698
  Force two-norm initial, final = 8.44518e-17 8.44518e-17
  Force max component initial, final = 6.93889e-18 6.93889e-18
  Final line search alpha, max atom move = 0.5 3.46945e-18
  Iterations, force evaluations = 1 2

Pair  time (%) = 0.00115585 (71.5255)
Neigh time (%) = 0 (0)
Comm  time (%) = 1.21593e-05 (0.752434)
Outpt time (%) = 0 (0)
Other time (%) = 0.000447989 (27.722)

Nlocal:    250 ave 250 max 250 min
Histogram: 1 0 0 0 0 0 0 0 0 0
Nghost:    605 ave 605 max 605 min
Histogram: 1 0 0 0 0 0 0 0 0 0
Neighs:    1750 ave 1750 max 1750 min
Histogram: 1 0 0 0 0 0 0 0 0 0
FullNghs:  0 ave 0 max 0 min
Histogram: 1 0 0 0 0 0 0 0 0 0

Total # of neighbors = 1750
Ave neighs/atom = 7
Neighbor list builds = 0
Dangerous builds = 0
variable   E equal "c_eatoms"
variable   N equal count(all)
variable   E_cohesive equal ${E}/${N}
variable   E_cohesive equal -8.9057965769772486908/${N}
variable   E_cohesive equal -8.9057965769772486908/250
print "${a}	${E_cohesive}" append lat_param.dat
5	-0.035623186307908998038

# ------------------- Loop:   ----------------------------------

clear
WARNING: OMP_NUM_THREADS environment is not set. (../comm.cpp:100)
  using 1 OpenMP thread(s) per MPI task
next            k
jump            input.rose.Fe
