ITEM: TIMESTEP
0
ITEM: NUMBER OF ATOMS
250
ITEM: BOX BOUNDS pp pp pp
0 15.25
0 15.25
0 15.25
ITEM: ATOMS id type xs ys zs c_peratom 
1 1 0 0 0 -3.91039 
2 1 0.1 0.1 0.1 -3.91039 
3 1 0.2 0 0 -3.91039 
11 1 0 0.2 0 -3.91039 
13 1 0.2 0.2 0 -3.91039 
51 1 0 0 0.2 -3.91039 
53 1 0.2 0 0.2 -3.91039 
61 1 0 0.2 0.2 -3.91039 
63 1 0.2 0.2 0.2 -3.91039 
4 1 0.3 0.1 0.1 -3.91039 
5 1 0.4 0 0 -3.91039 
15 1 0.4 0.2 0 -3.91039 
55 1 0.4 0 0.2 -3.91039 
65 1 0.4 0.2 0.2 -3.91039 
6 1 0.5 0.1 0.1 -3.91039 
7 1 0.6 0 0 -3.91039 
17 1 0.6 0.2 0 -3.91039 
57 1 0.6 0 0.2 -3.91039 
67 1 0.6 0.2 0.2 -3.91039 
8 1 0.7 0.1 0.1 -3.91039 
9 1 0.8 0 0 -3.91039 
19 1 0.8 0.2 0 -3.91039 
59 1 0.8 0 0.2 -3.91039 
69 1 0.8 0.2 0.2 -3.91039 
10 1 0.9 0.1 0.1 -3.91039 
12 1 0.1 0.3 0.1 -3.91039 
21 1 0 0.4 0 -3.91039 
23 1 0.2 0.4 0 -3.91039 
71 1 0 0.4 0.2 -3.91039 
73 1 0.2 0.4 0.2 -3.91039 
14 1 0.3 0.3 0.1 -3.91039 
25 1 0.4 0.4 0 -3.91039 
75 1 0.4 0.4 0.2 -3.91039 
16 1 0.5 0.3 0.1 -3.91039 
27 1 0.6 0.4 0 -3.91039 
77 1 0.6 0.4 0.2 -3.91039 
18 1 0.7 0.3 0.1 -3.91039 
29 1 0.8 0.4 0 -3.91039 
79 1 0.8 0.4 0.2 -3.91039 
20 1 0.9 0.3 0.1 -3.91039 
22 1 0.1 0.5 0.1 -3.91039 
31 1 0 0.6 0 -3.91039 
33 1 0.2 0.6 0 -3.91039 
81 1 0 0.6 0.2 -3.91039 
83 1 0.2 0.6 0.2 -3.91039 
24 1 0.3 0.5 0.1 -3.91039 
35 1 0.4 0.6 0 -3.91039 
85 1 0.4 0.6 0.2 -3.91039 
26 1 0.5 0.5 0.1 -3.91039 
37 1 0.6 0.6 0 -3.91039 
87 1 0.6 0.6 0.2 -3.91039 
28 1 0.7 0.5 0.1 -3.91039 
39 1 0.8 0.6 0 -3.91039 
89 1 0.8 0.6 0.2 -3.91039 
30 1 0.9 0.5 0.1 -3.91039 
32 1 0.1 0.7 0.1 -3.91039 
41 1 0 0.8 0 -3.91039 
43 1 0.2 0.8 0 -3.91039 
91 1 0 0.8 0.2 -3.91039 
93 1 0.2 0.8 0.2 -3.91039 
34 1 0.3 0.7 0.1 -3.91039 
45 1 0.4 0.8 0 -3.91039 
95 1 0.4 0.8 0.2 -3.91039 
36 1 0.5 0.7 0.1 -3.91039 
47 1 0.6 0.8 0 -3.91039 
97 1 0.6 0.8 0.2 -3.91039 
38 1 0.7 0.7 0.1 -3.91039 
49 1 0.8 0.8 0 -3.91039 
99 1 0.8 0.8 0.2 -3.91039 
40 1 0.9 0.7 0.1 -3.91039 
42 1 0.1 0.9 0.1 -3.91039 
44 1 0.3 0.9 0.1 -3.91039 
46 1 0.5 0.9 0.1 -3.91039 
48 1 0.7 0.9 0.1 -3.91039 
50 1 0.9 0.9 0.1 -3.91039 
52 1 0.1 0.1 0.3 -3.91039 
101 1 0 0 0.4 -3.91039 
103 1 0.2 0 0.4 -3.91039 
111 1 0 0.2 0.4 -3.91039 
113 1 0.2 0.2 0.4 -3.91039 
54 1 0.3 0.1 0.3 -3.91039 
105 1 0.4 0 0.4 -3.91039 
115 1 0.4 0.2 0.4 -3.91039 
56 1 0.5 0.1 0.3 -3.91039 
107 1 0.6 0 0.4 -3.91039 
117 1 0.6 0.2 0.4 -3.91039 
58 1 0.7 0.1 0.3 -3.91039 
109 1 0.8 0 0.4 -3.91039 
119 1 0.8 0.2 0.4 -3.91039 
60 1 0.9 0.1 0.3 -3.91039 
62 1 0.1 0.3 0.3 -3.91039 
121 1 0 0.4 0.4 -3.91039 
123 1 0.2 0.4 0.4 -3.91039 
64 1 0.3 0.3 0.3 -3.91039 
125 1 0.4 0.4 0.4 -3.91039 
66 1 0.5 0.3 0.3 -3.91039 
127 1 0.6 0.4 0.4 -3.91039 
68 1 0.7 0.3 0.3 -3.91039 
129 1 0.8 0.4 0.4 -3.91039 
70 1 0.9 0.3 0.3 -3.91039 
72 1 0.1 0.5 0.3 -3.91039 
131 1 0 0.6 0.4 -3.91039 
133 1 0.2 0.6 0.4 -3.91039 
74 1 0.3 0.5 0.3 -3.91039 
135 1 0.4 0.6 0.4 -3.91039 
76 1 0.5 0.5 0.3 -3.91039 
137 1 0.6 0.6 0.4 -3.91039 
78 1 0.7 0.5 0.3 -3.91039 
139 1 0.8 0.6 0.4 -3.91039 
80 1 0.9 0.5 0.3 -3.91039 
82 1 0.1 0.7 0.3 -3.91039 
141 1 0 0.8 0.4 -3.91039 
143 1 0.2 0.8 0.4 -3.91039 
84 1 0.3 0.7 0.3 -3.91039 
145 1 0.4 0.8 0.4 -3.91039 
86 1 0.5 0.7 0.3 -3.91039 
147 1 0.6 0.8 0.4 -3.91039 
88 1 0.7 0.7 0.3 -3.91039 
149 1 0.8 0.8 0.4 -3.91039 
90 1 0.9 0.7 0.3 -3.91039 
92 1 0.1 0.9 0.3 -3.91039 
94 1 0.3 0.9 0.3 -3.91039 
96 1 0.5 0.9 0.3 -3.91039 
98 1 0.7 0.9 0.3 -3.91039 
100 1 0.9 0.9 0.3 -3.91039 
102 1 0.1 0.1 0.5 -3.91039 
151 1 0 0 0.6 -3.91039 
153 1 0.2 0 0.6 -3.91039 
161 1 0 0.2 0.6 -3.91039 
163 1 0.2 0.2 0.6 -3.91039 
104 1 0.3 0.1 0.5 -3.91039 
155 1 0.4 0 0.6 -3.91039 
165 1 0.4 0.2 0.6 -3.91039 
106 1 0.5 0.1 0.5 -3.91039 
157 1 0.6 0 0.6 -3.91039 
167 1 0.6 0.2 0.6 -3.91039 
108 1 0.7 0.1 0.5 -3.91039 
159 1 0.8 0 0.6 -3.91039 
169 1 0.8 0.2 0.6 -3.91039 
110 1 0.9 0.1 0.5 -3.91039 
112 1 0.1 0.3 0.5 -3.91039 
171 1 0 0.4 0.6 -3.91039 
173 1 0.2 0.4 0.6 -3.91039 
114 1 0.3 0.3 0.5 -3.91039 
175 1 0.4 0.4 0.6 -3.91039 
116 1 0.5 0.3 0.5 -3.91039 
177 1 0.6 0.4 0.6 -3.91039 
118 1 0.7 0.3 0.5 -3.91039 
179 1 0.8 0.4 0.6 -3.91039 
120 1 0.9 0.3 0.5 -3.91039 
122 1 0.1 0.5 0.5 -3.91039 
181 1 0 0.6 0.6 -3.91039 
183 1 0.2 0.6 0.6 -3.91039 
124 1 0.3 0.5 0.5 -3.91039 
185 1 0.4 0.6 0.6 -3.91039 
126 1 0.5 0.5 0.5 -3.91039 
187 1 0.6 0.6 0.6 -3.91039 
128 1 0.7 0.5 0.5 -3.91039 
189 1 0.8 0.6 0.6 -3.91039 
130 1 0.9 0.5 0.5 -3.91039 
132 1 0.1 0.7 0.5 -3.91039 
191 1 0 0.8 0.6 -3.91039 
193 1 0.2 0.8 0.6 -3.91039 
134 1 0.3 0.7 0.5 -3.91039 
195 1 0.4 0.8 0.6 -3.91039 
136 1 0.5 0.7 0.5 -3.91039 
197 1 0.6 0.8 0.6 -3.91039 
138 1 0.7 0.7 0.5 -3.91039 
199 1 0.8 0.8 0.6 -3.91039 
140 1 0.9 0.7 0.5 -3.91039 
142 1 0.1 0.9 0.5 -3.91039 
144 1 0.3 0.9 0.5 -3.91039 
146 1 0.5 0.9 0.5 -3.91039 
148 1 0.7 0.9 0.5 -3.91039 
150 1 0.9 0.9 0.5 -3.91039 
152 1 0.1 0.1 0.7 -3.91039 
201 1 0 0 0.8 -3.91039 
203 1 0.2 0 0.8 -3.91039 
211 1 0 0.2 0.8 -3.91039 
213 1 0.2 0.2 0.8 -3.91039 
154 1 0.3 0.1 0.7 -3.91039 
205 1 0.4 0 0.8 -3.91039 
215 1 0.4 0.2 0.8 -3.91039 
156 1 0.5 0.1 0.7 -3.91039 
207 1 0.6 0 0.8 -3.91039 
217 1 0.6 0.2 0.8 -3.91039 
158 1 0.7 0.1 0.7 -3.91039 
209 1 0.8 0 0.8 -3.91039 
219 1 0.8 0.2 0.8 -3.91039 
160 1 0.9 0.1 0.7 -3.91039 
162 1 0.1 0.3 0.7 -3.91039 
221 1 0 0.4 0.8 -3.91039 
223 1 0.2 0.4 0.8 -3.91039 
164 1 0.3 0.3 0.7 -3.91039 
225 1 0.4 0.4 0.8 -3.91039 
166 1 0.5 0.3 0.7 -3.91039 
227 1 0.6 0.4 0.8 -3.91039 
168 1 0.7 0.3 0.7 -3.91039 
229 1 0.8 0.4 0.8 -3.91039 
170 1 0.9 0.3 0.7 -3.91039 
172 1 0.1 0.5 0.7 -3.91039 
231 1 0 0.6 0.8 -3.91039 
233 1 0.2 0.6 0.8 -3.91039 
174 1 0.3 0.5 0.7 -3.91039 
235 1 0.4 0.6 0.8 -3.91039 
176 1 0.5 0.5 0.7 -3.91039 
237 1 0.6 0.6 0.8 -3.91039 
178 1 0.7 0.5 0.7 -3.91039 
239 1 0.8 0.6 0.8 -3.91039 
180 1 0.9 0.5 0.7 -3.91039 
182 1 0.1 0.7 0.7 -3.91039 
241 1 0 0.8 0.8 -3.91039 
243 1 0.2 0.8 0.8 -3.91039 
184 1 0.3 0.7 0.7 -3.91039 
245 1 0.4 0.8 0.8 -3.91039 
186 1 0.5 0.7 0.7 -3.91039 
247 1 0.6 0.8 0.8 -3.91039 
188 1 0.7 0.7 0.7 -3.91039 
249 1 0.8 0.8 0.8 -3.91039 
190 1 0.9 0.7 0.7 -3.91039 
192 1 0.1 0.9 0.7 -3.91039 
194 1 0.3 0.9 0.7 -3.91039 
196 1 0.5 0.9 0.7 -3.91039 
198 1 0.7 0.9 0.7 -3.91039 
200 1 0.9 0.9 0.7 -3.91039 
202 1 0.1 0.1 0.9 -3.91039 
204 1 0.3 0.1 0.9 -3.91039 
206 1 0.5 0.1 0.9 -3.91039 
208 1 0.7 0.1 0.9 -3.91039 
210 1 0.9 0.1 0.9 -3.91039 
212 1 0.1 0.3 0.9 -3.91039 
214 1 0.3 0.3 0.9 -3.91039 
216 1 0.5 0.3 0.9 -3.91039 
218 1 0.7 0.3 0.9 -3.91039 
220 1 0.9 0.3 0.9 -3.91039 
222 1 0.1 0.5 0.9 -3.91039 
224 1 0.3 0.5 0.9 -3.91039 
226 1 0.5 0.5 0.9 -3.91039 
228 1 0.7 0.5 0.9 -3.91039 
230 1 0.9 0.5 0.9 -3.91039 
232 1 0.1 0.7 0.9 -3.91039 
234 1 0.3 0.7 0.9 -3.91039 
236 1 0.5 0.7 0.9 -3.91039 
238 1 0.7 0.7 0.9 -3.91039 
240 1 0.9 0.7 0.9 -3.91039 
242 1 0.1 0.9 0.9 -3.91039 
244 1 0.3 0.9 0.9 -3.91039 
246 1 0.5 0.9 0.9 -3.91039 
248 1 0.7 0.9 0.9 -3.91039 
250 1 0.9 0.9 0.9 -3.91039 
ITEM: TIMESTEP
1
ITEM: NUMBER OF ATOMS
250
ITEM: BOX BOUNDS pp pp pp
0 15.25
0 15.25
0 15.25
ITEM: ATOMS id type xs ys zs c_peratom 
1 1 0 0 0 -3.91039 
2 1 0.1 0.1 0.1 -3.91039 
3 1 0.2 0 0 -3.91039 
11 1 0 0.2 0 -3.91039 
13 1 0.2 0.2 0 -3.91039 
51 1 0 0 0.2 -3.91039 
53 1 0.2 0 0.2 -3.91039 
61 1 0 0.2 0.2 -3.91039 
63 1 0.2 0.2 0.2 -3.91039 
4 1 0.3 0.1 0.1 -3.91039 
5 1 0.4 0 0 -3.91039 
15 1 0.4 0.2 0 -3.91039 
55 1 0.4 0 0.2 -3.91039 
65 1 0.4 0.2 0.2 -3.91039 
6 1 0.5 0.1 0.1 -3.91039 
7 1 0.6 0 0 -3.91039 
17 1 0.6 0.2 0 -3.91039 
57 1 0.6 0 0.2 -3.91039 
67 1 0.6 0.2 0.2 -3.91039 
8 1 0.7 0.1 0.1 -3.91039 
9 1 0.8 0 0 -3.91039 
19 1 0.8 0.2 0 -3.91039 
59 1 0.8 0 0.2 -3.91039 
69 1 0.8 0.2 0.2 -3.91039 
10 1 0.9 0.1 0.1 -3.91039 
12 1 0.1 0.3 0.1 -3.91039 
21 1 0 0.4 0 -3.91039 
23 1 0.2 0.4 0 -3.91039 
71 1 0 0.4 0.2 -3.91039 
73 1 0.2 0.4 0.2 -3.91039 
14 1 0.3 0.3 0.1 -3.91039 
25 1 0.4 0.4 0 -3.91039 
75 1 0.4 0.4 0.2 -3.91039 
16 1 0.5 0.3 0.1 -3.91039 
27 1 0.6 0.4 0 -3.91039 
77 1 0.6 0.4 0.2 -3.91039 
18 1 0.7 0.3 0.1 -3.91039 
29 1 0.8 0.4 0 -3.91039 
79 1 0.8 0.4 0.2 -3.91039 
20 1 0.9 0.3 0.1 -3.91039 
22 1 0.1 0.5 0.1 -3.91039 
31 1 0 0.6 0 -3.91039 
33 1 0.2 0.6 0 -3.91039 
81 1 0 0.6 0.2 -3.91039 
83 1 0.2 0.6 0.2 -3.91039 
24 1 0.3 0.5 0.1 -3.91039 
35 1 0.4 0.6 0 -3.91039 
85 1 0.4 0.6 0.2 -3.91039 
26 1 0.5 0.5 0.1 -3.91039 
37 1 0.6 0.6 0 -3.91039 
87 1 0.6 0.6 0.2 -3.91039 
28 1 0.7 0.5 0.1 -3.91039 
39 1 0.8 0.6 0 -3.91039 
89 1 0.8 0.6 0.2 -3.91039 
30 1 0.9 0.5 0.1 -3.91039 
32 1 0.1 0.7 0.1 -3.91039 
41 1 0 0.8 0 -3.91039 
43 1 0.2 0.8 0 -3.91039 
91 1 0 0.8 0.2 -3.91039 
93 1 0.2 0.8 0.2 -3.91039 
34 1 0.3 0.7 0.1 -3.91039 
45 1 0.4 0.8 0 -3.91039 
95 1 0.4 0.8 0.2 -3.91039 
36 1 0.5 0.7 0.1 -3.91039 
47 1 0.6 0.8 0 -3.91039 
97 1 0.6 0.8 0.2 -3.91039 
38 1 0.7 0.7 0.1 -3.91039 
49 1 0.8 0.8 0 -3.91039 
99 1 0.8 0.8 0.2 -3.91039 
40 1 0.9 0.7 0.1 -3.91039 
42 1 0.1 0.9 0.1 -3.91039 
44 1 0.3 0.9 0.1 -3.91039 
46 1 0.5 0.9 0.1 -3.91039 
48 1 0.7 0.9 0.1 -3.91039 
50 1 0.9 0.9 0.1 -3.91039 
52 1 0.1 0.1 0.3 -3.91039 
101 1 0 0 0.4 -3.91039 
103 1 0.2 0 0.4 -3.91039 
111 1 0 0.2 0.4 -3.91039 
113 1 0.2 0.2 0.4 -3.91039 
54 1 0.3 0.1 0.3 -3.91039 
105 1 0.4 0 0.4 -3.91039 
115 1 0.4 0.2 0.4 -3.91039 
56 1 0.5 0.1 0.3 -3.91039 
107 1 0.6 0 0.4 -3.91039 
117 1 0.6 0.2 0.4 -3.91039 
58 1 0.7 0.1 0.3 -3.91039 
109 1 0.8 0 0.4 -3.91039 
119 1 0.8 0.2 0.4 -3.91039 
60 1 0.9 0.1 0.3 -3.91039 
62 1 0.1 0.3 0.3 -3.91039 
121 1 0 0.4 0.4 -3.91039 
123 1 0.2 0.4 0.4 -3.91039 
64 1 0.3 0.3 0.3 -3.91039 
125 1 0.4 0.4 0.4 -3.91039 
66 1 0.5 0.3 0.3 -3.91039 
127 1 0.6 0.4 0.4 -3.91039 
68 1 0.7 0.3 0.3 -3.91039 
129 1 0.8 0.4 0.4 -3.91039 
70 1 0.9 0.3 0.3 -3.91039 
72 1 0.1 0.5 0.3 -3.91039 
131 1 0 0.6 0.4 -3.91039 
133 1 0.2 0.6 0.4 -3.91039 
74 1 0.3 0.5 0.3 -3.91039 
135 1 0.4 0.6 0.4 -3.91039 
76 1 0.5 0.5 0.3 -3.91039 
137 1 0.6 0.6 0.4 -3.91039 
78 1 0.7 0.5 0.3 -3.91039 
139 1 0.8 0.6 0.4 -3.91039 
80 1 0.9 0.5 0.3 -3.91039 
82 1 0.1 0.7 0.3 -3.91039 
141 1 0 0.8 0.4 -3.91039 
143 1 0.2 0.8 0.4 -3.91039 
84 1 0.3 0.7 0.3 -3.91039 
145 1 0.4 0.8 0.4 -3.91039 
86 1 0.5 0.7 0.3 -3.91039 
147 1 0.6 0.8 0.4 -3.91039 
88 1 0.7 0.7 0.3 -3.91039 
149 1 0.8 0.8 0.4 -3.91039 
90 1 0.9 0.7 0.3 -3.91039 
92 1 0.1 0.9 0.3 -3.91039 
94 1 0.3 0.9 0.3 -3.91039 
96 1 0.5 0.9 0.3 -3.91039 
98 1 0.7 0.9 0.3 -3.91039 
100 1 0.9 0.9 0.3 -3.91039 
102 1 0.1 0.1 0.5 -3.91039 
151 1 0 0 0.6 -3.91039 
153 1 0.2 0 0.6 -3.91039 
161 1 0 0.2 0.6 -3.91039 
163 1 0.2 0.2 0.6 -3.91039 
104 1 0.3 0.1 0.5 -3.91039 
155 1 0.4 0 0.6 -3.91039 
165 1 0.4 0.2 0.6 -3.91039 
106 1 0.5 0.1 0.5 -3.91039 
157 1 0.6 0 0.6 -3.91039 
167 1 0.6 0.2 0.6 -3.91039 
108 1 0.7 0.1 0.5 -3.91039 
159 1 0.8 0 0.6 -3.91039 
169 1 0.8 0.2 0.6 -3.91039 
110 1 0.9 0.1 0.5 -3.91039 
112 1 0.1 0.3 0.5 -3.91039 
171 1 0 0.4 0.6 -3.91039 
173 1 0.2 0.4 0.6 -3.91039 
114 1 0.3 0.3 0.5 -3.91039 
175 1 0.4 0.4 0.6 -3.91039 
116 1 0.5 0.3 0.5 -3.91039 
177 1 0.6 0.4 0.6 -3.91039 
118 1 0.7 0.3 0.5 -3.91039 
179 1 0.8 0.4 0.6 -3.91039 
120 1 0.9 0.3 0.5 -3.91039 
122 1 0.1 0.5 0.5 -3.91039 
181 1 0 0.6 0.6 -3.91039 
183 1 0.2 0.6 0.6 -3.91039 
124 1 0.3 0.5 0.5 -3.91039 
185 1 0.4 0.6 0.6 -3.91039 
126 1 0.5 0.5 0.5 -3.91039 
187 1 0.6 0.6 0.6 -3.91039 
128 1 0.7 0.5 0.5 -3.91039 
189 1 0.8 0.6 0.6 -3.91039 
130 1 0.9 0.5 0.5 -3.91039 
132 1 0.1 0.7 0.5 -3.91039 
191 1 0 0.8 0.6 -3.91039 
193 1 0.2 0.8 0.6 -3.91039 
134 1 0.3 0.7 0.5 -3.91039 
195 1 0.4 0.8 0.6 -3.91039 
136 1 0.5 0.7 0.5 -3.91039 
197 1 0.6 0.8 0.6 -3.91039 
138 1 0.7 0.7 0.5 -3.91039 
199 1 0.8 0.8 0.6 -3.91039 
140 1 0.9 0.7 0.5 -3.91039 
142 1 0.1 0.9 0.5 -3.91039 
144 1 0.3 0.9 0.5 -3.91039 
146 1 0.5 0.9 0.5 -3.91039 
148 1 0.7 0.9 0.5 -3.91039 
150 1 0.9 0.9 0.5 -3.91039 
152 1 0.1 0.1 0.7 -3.91039 
201 1 0 0 0.8 -3.91039 
203 1 0.2 0 0.8 -3.91039 
211 1 0 0.2 0.8 -3.91039 
213 1 0.2 0.2 0.8 -3.91039 
154 1 0.3 0.1 0.7 -3.91039 
205 1 0.4 0 0.8 -3.91039 
215 1 0.4 0.2 0.8 -3.91039 
156 1 0.5 0.1 0.7 -3.91039 
207 1 0.6 0 0.8 -3.91039 
217 1 0.6 0.2 0.8 -3.91039 
158 1 0.7 0.1 0.7 -3.91039 
209 1 0.8 0 0.8 -3.91039 
219 1 0.8 0.2 0.8 -3.91039 
160 1 0.9 0.1 0.7 -3.91039 
162 1 0.1 0.3 0.7 -3.91039 
221 1 0 0.4 0.8 -3.91039 
223 1 0.2 0.4 0.8 -3.91039 
164 1 0.3 0.3 0.7 -3.91039 
225 1 0.4 0.4 0.8 -3.91039 
166 1 0.5 0.3 0.7 -3.91039 
227 1 0.6 0.4 0.8 -3.91039 
168 1 0.7 0.3 0.7 -3.91039 
229 1 0.8 0.4 0.8 -3.91039 
170 1 0.9 0.3 0.7 -3.91039 
172 1 0.1 0.5 0.7 -3.91039 
231 1 0 0.6 0.8 -3.91039 
233 1 0.2 0.6 0.8 -3.91039 
174 1 0.3 0.5 0.7 -3.91039 
235 1 0.4 0.6 0.8 -3.91039 
176 1 0.5 0.5 0.7 -3.91039 
237 1 0.6 0.6 0.8 -3.91039 
178 1 0.7 0.5 0.7 -3.91039 
239 1 0.8 0.6 0.8 -3.91039 
180 1 0.9 0.5 0.7 -3.91039 
182 1 0.1 0.7 0.7 -3.91039 
241 1 0 0.8 0.8 -3.91039 
243 1 0.2 0.8 0.8 -3.91039 
184 1 0.3 0.7 0.7 -3.91039 
245 1 0.4 0.8 0.8 -3.91039 
186 1 0.5 0.7 0.7 -3.91039 
247 1 0.6 0.8 0.8 -3.91039 
188 1 0.7 0.7 0.7 -3.91039 
249 1 0.8 0.8 0.8 -3.91039 
190 1 0.9 0.7 0.7 -3.91039 
192 1 0.1 0.9 0.7 -3.91039 
194 1 0.3 0.9 0.7 -3.91039 
196 1 0.5 0.9 0.7 -3.91039 
198 1 0.7 0.9 0.7 -3.91039 
200 1 0.9 0.9 0.7 -3.91039 
202 1 0.1 0.1 0.9 -3.91039 
204 1 0.3 0.1 0.9 -3.91039 
206 1 0.5 0.1 0.9 -3.91039 
208 1 0.7 0.1 0.9 -3.91039 
210 1 0.9 0.1 0.9 -3.91039 
212 1 0.1 0.3 0.9 -3.91039 
214 1 0.3 0.3 0.9 -3.91039 
216 1 0.5 0.3 0.9 -3.91039 
218 1 0.7 0.3 0.9 -3.91039 
220 1 0.9 0.3 0.9 -3.91039 
222 1 0.1 0.5 0.9 -3.91039 
224 1 0.3 0.5 0.9 -3.91039 
226 1 0.5 0.5 0.9 -3.91039 
228 1 0.7 0.5 0.9 -3.91039 
230 1 0.9 0.5 0.9 -3.91039 
232 1 0.1 0.7 0.9 -3.91039 
234 1 0.3 0.7 0.9 -3.91039 
236 1 0.5 0.7 0.9 -3.91039 
238 1 0.7 0.7 0.9 -3.91039 
240 1 0.9 0.7 0.9 -3.91039 
242 1 0.1 0.9 0.9 -3.91039 
244 1 0.3 0.9 0.9 -3.91039 
246 1 0.5 0.9 0.9 -3.91039 
248 1 0.7 0.9 0.9 -3.91039 
250 1 0.9 0.9 0.9 -3.91039 
