LAMMPS (11 Nov 2013)
WARNING: OMP_NUM_THREADS environment is not set. (../comm.cpp:100)
  using 1 OpenMP thread(s) per MPI task
# This input file is used to calculate the lattice constant of bcc Fe
# E. Mansouri
# KTH, Nuclear Engineering
# ebrman@kth.se

# ------------------ Initial parameter defenition --------------------

units           metal
boundary        p p p
atom_style      atomic

# ----------------- variable setting -----------------------------------

variable        k loop 60               # define the number of loop
variable        a equal 2.75+0.005*$k   # define the various lattice constant “a”
variable        a equal 2.75+0.005*1   

# ----------------- Bcc Fe supercell setting ---------------------------

lattice         bcc $a
lattice         bcc 2.7549999999999998934
Lattice spacing in x,y,z = 2.755 2.755 2.755
region          box block 0 5 0 5 0 5
create_box      1 box
Created orthogonal box = (0 0 0) to (13.775 13.775 13.775)
  1 by 1 by 1 MPI processor grid
create_atoms    1 box
Created 250 atoms

# ----------------- Define Interatomic Potential ---------------------

pair_style hybrid/overlay eam/alloy eam/fs
pair_coeff * * eam/alloy ../potentials/FeCr_d.eam.alloy Fe
pair_coeff * * eam/fs ../potentials/FeCr_s.eam.fs Fe

neighbor 0.3 bin
neigh_modify  delay 1

# ------------------- Calculated properties setting---------------------------

compute peratom all pe/atom
compute eatoms all reduce sum c_peratom
compute csym all centro/atom bcc

# ------------------- Thermal properties output ------------------------------

timestep        0.001
thermo 10
thermo_style custom step pe c_eatoms
dump 1 all custom 200 dump.bcc.Fe id type xs ys zs c_peratom

# ------------------- Minimize the total energy ------------------------------

min_style  cg
minimize   1.0e-20 1.0e-20 5000 5000
WARNING: Resetting reneighboring criteria during minimization (../min.cpp:173)
Memory usage per processor = 4.49693 Mbytes
Step PotEng eatoms 
       0   -1012.6309   -1012.6309 
       1   -1012.6309   -1012.6309 
Loop time of 0.0048449 on 1 procs (1 MPI x 1 OpenMP) for 1 steps with 250 atoms

Minimization stats:
  Stopping criterion = linesearch alpha is zero
  Energy initial, next-to-last, final = 
        -1012.63089587     -1012.63089587     -1012.63089587
  Force two-norm initial, final = 1.09409e-13 1.09409e-13
  Force max component initial, final = 1.1483e-14 1.1483e-14
  Final line search alpha, max atom move = 0.5 5.7415e-15
  Iterations, force evaluations = 1 2

Pair  time (%) = 0.00437617 (90.3253)
Neigh time (%) = 0 (0)
Comm  time (%) = 3.17097e-05 (0.654495)
Outpt time (%) = 0 (0)
Other time (%) = 0.000437021 (9.02023)

Nlocal:    250 ave 250 max 250 min
Histogram: 1 0 0 0 0 0 0 0 0 0
Nghost:    1479 ave 1479 max 1479 min
Histogram: 1 0 0 0 0 0 0 0 0 0
Neighs:    8000 ave 8000 max 8000 min
Histogram: 1 0 0 0 0 0 0 0 0 0
FullNghs:  0 ave 0 max 0 min
Histogram: 1 0 0 0 0 0 0 0 0 0

Total # of neighbors = 8000
Ave neighs/atom = 32
Neighbor list builds = 0
Dangerous builds = 0
variable   E equal "c_eatoms"
variable   N equal count(all)
variable   E_cohesive equal ${E}/${N}
variable   E_cohesive equal -1012.6308958651019339/${N}
variable   E_cohesive equal -1012.6308958651019339/250
print "${a}	${E_cohesive}" append lat_param.dat
2.7549999999999998934	-4.0505235834604080836

# ------------------- Loop:   ----------------------------------

clear
WARNING: OMP_NUM_THREADS environment is not set. (../comm.cpp:100)
  using 1 OpenMP thread(s) per MPI task
next            k
jump            input_a0.Fe
# This input file is used to calculate the lattice constant of bcc Fe
# E. Mansouri
# KTH, Nuclear Engineering
# ebrman@kth.se

# ------------------ Initial parameter defenition --------------------

units           metal
boundary        p p p
atom_style      atomic

# ----------------- variable setting -----------------------------------

variable        k loop 60               # define the number of loop
variable        a equal 2.75+0.005*$k   # define the various lattice constant “a”
variable        a equal 2.75+0.005*2   

# ----------------- Bcc Fe supercell setting ---------------------------

lattice         bcc $a
lattice         bcc 2.7599999999999997868
Lattice spacing in x,y,z = 2.76 2.76 2.76
region          box block 0 5 0 5 0 5
create_box      1 box
Created orthogonal box = (0 0 0) to (13.8 13.8 13.8)
  1 by 1 by 1 MPI processor grid
create_atoms    1 box
Created 250 atoms

# ----------------- Define Interatomic Potential ---------------------

pair_style hybrid/overlay eam/alloy eam/fs
pair_coeff * * eam/alloy ../potentials/FeCr_d.eam.alloy Fe
pair_coeff * * eam/fs ../potentials/FeCr_s.eam.fs Fe

neighbor 0.3 bin
neigh_modify  delay 1

# ------------------- Calculated properties setting---------------------------

compute peratom all pe/atom
compute eatoms all reduce sum c_peratom
compute csym all centro/atom bcc

# ------------------- Thermal properties output ------------------------------

timestep        0.001
thermo 10
thermo_style custom step pe c_eatoms
dump 1 all custom 200 dump.bcc.Fe id type xs ys zs c_peratom

# ------------------- Minimize the total energy ------------------------------

min_style  cg
minimize   1.0e-20 1.0e-20 5000 5000
WARNING: Resetting reneighboring criteria during minimization (../min.cpp:173)
Memory usage per processor = 4.49693 Mbytes
Step PotEng eatoms 
       0   -1014.3817   -1014.3817 
       1   -1014.3817   -1014.3817 
Loop time of 0.00483394 on 1 procs (1 MPI x 1 OpenMP) for 1 steps with 250 atoms

Minimization stats:
  Stopping criterion = linesearch alpha is zero
  Energy initial, next-to-last, final = 
        -1014.38166688     -1014.38166688     -1014.38166688
  Force two-norm initial, final = 1.44818e-13 1.44818e-13
  Force max component initial, final = 1.18794e-14 1.18794e-14
  Final line search alpha, max atom move = 0.5 5.93969e-15
  Iterations, force evaluations = 1 2

Pair  time (%) = 0.0043819 (90.6486)
Neigh time (%) = 0 (0)
Comm  time (%) = 3.12328e-05 (0.646116)
Outpt time (%) = 0 (0)
Other time (%) = 0.000420809 (8.7053)

Nlocal:    250 ave 250 max 250 min
Histogram: 1 0 0 0 0 0 0 0 0 0
Nghost:    1479 ave 1479 max 1479 min
Histogram: 1 0 0 0 0 0 0 0 0 0
Neighs:    8000 ave 8000 max 8000 min
Histogram: 1 0 0 0 0 0 0 0 0 0
FullNghs:  0 ave 0 max 0 min
Histogram: 1 0 0 0 0 0 0 0 0 0

Total # of neighbors = 8000
Ave neighs/atom = 32
Neighbor list builds = 0
Dangerous builds = 0
variable   E equal "c_eatoms"
variable   N equal count(all)
variable   E_cohesive equal ${E}/${N}
variable   E_cohesive equal -1014.3816668831677816/${N}
variable   E_cohesive equal -1014.3816668831677816/250
print "${a}	${E_cohesive}" append lat_param.dat
2.7599999999999997868	-4.0575266675326711052

# ------------------- Loop:   ----------------------------------

clear
WARNING: OMP_NUM_THREADS environment is not set. (../comm.cpp:100)
  using 1 OpenMP thread(s) per MPI task
next            k
jump            input_a0.Fe
# This input file is used to calculate the lattice constant of bcc Fe
# E. Mansouri
# KTH, Nuclear Engineering
# ebrman@kth.se

# ------------------ Initial parameter defenition --------------------

units           metal
boundary        p p p
atom_style      atomic

# ----------------- variable setting -----------------------------------

variable        k loop 60               # define the number of loop
variable        a equal 2.75+0.005*$k   # define the various lattice constant “a”
variable        a equal 2.75+0.005*3   

# ----------------- Bcc Fe supercell setting ---------------------------

lattice         bcc $a
lattice         bcc 2.7650000000000001243
Lattice spacing in x,y,z = 2.765 2.765 2.765
region          box block 0 5 0 5 0 5
create_box      1 box
Created orthogonal box = (0 0 0) to (13.825 13.825 13.825)
  1 by 1 by 1 MPI processor grid
create_atoms    1 box
Created 250 atoms

# ----------------- Define Interatomic Potential ---------------------

pair_style hybrid/overlay eam/alloy eam/fs
pair_coeff * * eam/alloy ../potentials/FeCr_d.eam.alloy Fe
pair_coeff * * eam/fs ../potentials/FeCr_s.eam.fs Fe

neighbor 0.3 bin
neigh_modify  delay 1

# ------------------- Calculated properties setting---------------------------

compute peratom all pe/atom
compute eatoms all reduce sum c_peratom
compute csym all centro/atom bcc

# ------------------- Thermal properties output ------------------------------

timestep        0.001
thermo 10
thermo_style custom step pe c_eatoms
dump 1 all custom 200 dump.bcc.Fe id type xs ys zs c_peratom

# ------------------- Minimize the total energy ------------------------------

min_style  cg
minimize   1.0e-20 1.0e-20 5000 5000
WARNING: Resetting reneighboring criteria during minimization (../min.cpp:173)
Memory usage per processor = 4.49693 Mbytes
Step PotEng eatoms 
       0   -1016.0395   -1016.0395 
       1   -1016.0395   -1016.0395 
Loop time of 0.00485015 on 1 procs (1 MPI x 1 OpenMP) for 1 steps with 250 atoms

Minimization stats:
  Stopping criterion = linesearch alpha is zero
  Energy initial, next-to-last, final = 
        -1016.03953738     -1016.03953738     -1016.03953738
  Force two-norm initial, final = 5.85321e-14 5.85321e-14
  Force max component initial, final = 5.32907e-15 5.32907e-15
  Final line search alpha, max atom move = 0.5 2.66454e-15
  Iterations, force evaluations = 1 2

Pair  time (%) = 0.0043807 (90.321)
Neigh time (%) = 0 (0)
Comm  time (%) = 2.98023e-05 (0.614462)
Outpt time (%) = 0 (0)
Other time (%) = 0.000439644 (9.06454)

Nlocal:    250 ave 250 max 250 min
Histogram: 1 0 0 0 0 0 0 0 0 0
Nghost:    1479 ave 1479 max 1479 min
Histogram: 1 0 0 0 0 0 0 0 0 0
Neighs:    8000 ave 8000 max 8000 min
Histogram: 1 0 0 0 0 0 0 0 0 0
FullNghs:  0 ave 0 max 0 min
Histogram: 1 0 0 0 0 0 0 0 0 0

Total # of neighbors = 8000
Ave neighs/atom = 32
Neighbor list builds = 0
Dangerous builds = 0
variable   E equal "c_eatoms"
variable   N equal count(all)
variable   E_cohesive equal ${E}/${N}
variable   E_cohesive equal -1016.0395373827954018/${N}
variable   E_cohesive equal -1016.0395373827954018/250
print "${a}	${E_cohesive}" append lat_param.dat
2.7650000000000001243	-4.0641581495311820404

# ------------------- Loop:   ----------------------------------

clear
WARNING: OMP_NUM_THREADS environment is not set. (../comm.cpp:100)
  using 1 OpenMP thread(s) per MPI task
next            k
jump            input_a0.Fe
# This input file is used to calculate the lattice constant of bcc Fe
# E. Mansouri
# KTH, Nuclear Engineering
# ebrman@kth.se

# ------------------ Initial parameter defenition --------------------

units           metal
boundary        p p p
atom_style      atomic

# ----------------- variable setting -----------------------------------

variable        k loop 60               # define the number of loop
variable        a equal 2.75+0.005*$k   # define the various lattice constant “a”
variable        a equal 2.75+0.005*4   

# ----------------- Bcc Fe supercell setting ---------------------------

lattice         bcc $a
lattice         bcc 2.7700000000000000178
Lattice spacing in x,y,z = 2.77 2.77 2.77
region          box block 0 5 0 5 0 5
create_box      1 box
Created orthogonal box = (0 0 0) to (13.85 13.85 13.85)
  1 by 1 by 1 MPI processor grid
create_atoms    1 box
Created 250 atoms

# ----------------- Define Interatomic Potential ---------------------

pair_style hybrid/overlay eam/alloy eam/fs
pair_coeff * * eam/alloy ../potentials/FeCr_d.eam.alloy Fe
pair_coeff * * eam/fs ../potentials/FeCr_s.eam.fs Fe

neighbor 0.3 bin
neigh_modify  delay 1

# ------------------- Calculated properties setting---------------------------

compute peratom all pe/atom
compute eatoms all reduce sum c_peratom
compute csym all centro/atom bcc

# ------------------- Thermal properties output ------------------------------

timestep        0.001
thermo 10
thermo_style custom step pe c_eatoms
dump 1 all custom 200 dump.bcc.Fe id type xs ys zs c_peratom

# ------------------- Minimize the total energy ------------------------------

min_style  cg
minimize   1.0e-20 1.0e-20 5000 5000
WARNING: Resetting reneighboring criteria during minimization (../min.cpp:173)
Memory usage per processor = 4.49693 Mbytes
Step PotEng eatoms 
       0    -1017.606    -1017.606 
       1    -1017.606    -1017.606 
Loop time of 0.00482893 on 1 procs (1 MPI x 1 OpenMP) for 1 steps with 250 atoms

Minimization stats:
  Stopping criterion = linesearch alpha is zero
  Energy initial, next-to-last, final = 
        -1017.60603998     -1017.60603998     -1017.60603998
  Force two-norm initial, final = 5.03983e-14 5.03983e-14
  Force max component initial, final = 6.57547e-15 6.57547e-15
  Final line search alpha, max atom move = 0.5 3.28773e-15
  Iterations, force evaluations = 1 2

Pair  time (%) = 0.00437212 (90.5401)
Neigh time (%) = 0 (0)
Comm  time (%) = 3.19481e-05 (0.661598)
Outpt time (%) = 0 (0)
Other time (%) = 0.000424862 (8.79826)

Nlocal:    250 ave 250 max 250 min
Histogram: 1 0 0 0 0 0 0 0 0 0
Nghost:    1479 ave 1479 max 1479 min
Histogram: 1 0 0 0 0 0 0 0 0 0
Neighs:    8000 ave 8000 max 8000 min
Histogram: 1 0 0 0 0 0 0 0 0 0
FullNghs:  0 ave 0 max 0 min
Histogram: 1 0 0 0 0 0 0 0 0 0

Total # of neighbors = 8000
Ave neighs/atom = 32
Neighbor list builds = 0
Dangerous builds = 0
variable   E equal "c_eatoms"
variable   N equal count(all)
variable   E_cohesive equal ${E}/${N}
variable   E_cohesive equal -1017.6060399808195598/${N}
variable   E_cohesive equal -1017.6060399808195598/250
print "${a}	${E_cohesive}" append lat_param.dat
2.7700000000000000178	-4.0704241599232782178

# ------------------- Loop:   ----------------------------------

clear
WARNING: OMP_NUM_THREADS environment is not set. (../comm.cpp:100)
  using 1 OpenMP thread(s) per MPI task
next            k
jump            input_a0.Fe
# This input file is used to calculate the lattice constant of bcc Fe
# E. Mansouri
# KTH, Nuclear Engineering
# ebrman@kth.se

# ------------------ Initial parameter defenition --------------------

units           metal
boundary        p p p
atom_style      atomic

# ----------------- variable setting -----------------------------------

variable        k loop 60               # define the number of loop
variable        a equal 2.75+0.005*$k   # define the various lattice constant “a”
variable        a equal 2.75+0.005*5   

# ----------------- Bcc Fe supercell setting ---------------------------

lattice         bcc $a
lattice         bcc 2.7749999999999999112
Lattice spacing in x,y,z = 2.775 2.775 2.775
region          box block 0 5 0 5 0 5
create_box      1 box
Created orthogonal box = (0 0 0) to (13.875 13.875 13.875)
  1 by 1 by 1 MPI processor grid
create_atoms    1 box
Created 250 atoms

# ----------------- Define Interatomic Potential ---------------------

pair_style hybrid/overlay eam/alloy eam/fs
pair_coeff * * eam/alloy ../potentials/FeCr_d.eam.alloy Fe
pair_coeff * * eam/fs ../potentials/FeCr_s.eam.fs Fe

neighbor 0.3 bin
neigh_modify  delay 1

# ------------------- Calculated properties setting---------------------------

compute peratom all pe/atom
compute eatoms all reduce sum c_peratom
compute csym all centro/atom bcc

# ------------------- Thermal properties output ------------------------------

timestep        0.001
thermo 10
thermo_style custom step pe c_eatoms
dump 1 all custom 200 dump.bcc.Fe id type xs ys zs c_peratom

# ------------------- Minimize the total energy ------------------------------

min_style  cg
minimize   1.0e-20 1.0e-20 5000 5000
WARNING: Resetting reneighboring criteria during minimization (../min.cpp:173)
Memory usage per processor = 4.49693 Mbytes
Step PotEng eatoms 
       0   -1019.0826   -1019.0826 
       1   -1019.0826   -1019.0826 
Loop time of 0.00483894 on 1 procs (1 MPI x 1 OpenMP) for 1 steps with 250 atoms

Minimization stats:
  Stopping criterion = linesearch alpha is zero
  Energy initial, next-to-last, final = 
        -1019.08261059     -1019.08261059     -1019.08261059
  Force two-norm initial, final = 1.22954e-13 1.22954e-13
  Force max component initial, final = 9.92956e-15 9.92956e-15
  Final line search alpha, max atom move = 0.5 4.96478e-15
  Iterations, force evaluations = 1 2

Pair  time (%) = 0.0043788 (90.4907)
Neigh time (%) = 0 (0)
Comm  time (%) = 3.19481e-05 (0.660229)
Outpt time (%) = 0 (0)
Other time (%) = 0.0004282 (8.84903)

Nlocal:    250 ave 250 max 250 min
Histogram: 1 0 0 0 0 0 0 0 0 0
Nghost:    1479 ave 1479 max 1479 min
Histogram: 1 0 0 0 0 0 0 0 0 0
Neighs:    8000 ave 8000 max 8000 min
Histogram: 1 0 0 0 0 0 0 0 0 0
FullNghs:  0 ave 0 max 0 min
Histogram: 1 0 0 0 0 0 0 0 0 0

Total # of neighbors = 8000
Ave neighs/atom = 32
Neighbor list builds = 0
Dangerous builds = 0
variable   E equal "c_eatoms"
variable   N equal count(all)
variable   E_cohesive equal ${E}/${N}
variable   E_cohesive equal -1019.0826105945786821/${N}
variable   E_cohesive equal -1019.0826105945786821/250
print "${a}	${E_cohesive}" append lat_param.dat
2.7749999999999999112	-4.0763304423783148778

# ------------------- Loop:   ----------------------------------

clear
WARNING: OMP_NUM_THREADS environment is not set. (../comm.cpp:100)
  using 1 OpenMP thread(s) per MPI task
next            k
jump            input_a0.Fe
# This input file is used to calculate the lattice constant of bcc Fe
# E. Mansouri
# KTH, Nuclear Engineering
# ebrman@kth.se

# ------------------ Initial parameter defenition --------------------

units           metal
boundary        p p p
atom_style      atomic

# ----------------- variable setting -----------------------------------

variable        k loop 60               # define the number of loop
variable        a equal 2.75+0.005*$k   # define the various lattice constant “a”
variable        a equal 2.75+0.005*6   

# ----------------- Bcc Fe supercell setting ---------------------------

lattice         bcc $a
lattice         bcc 2.7799999999999998046
Lattice spacing in x,y,z = 2.78 2.78 2.78
region          box block 0 5 0 5 0 5
create_box      1 box
Created orthogonal box = (0 0 0) to (13.9 13.9 13.9)
  1 by 1 by 1 MPI processor grid
create_atoms    1 box
Created 250 atoms

# ----------------- Define Interatomic Potential ---------------------

pair_style hybrid/overlay eam/alloy eam/fs
pair_coeff * * eam/alloy ../potentials/FeCr_d.eam.alloy Fe
pair_coeff * * eam/fs ../potentials/FeCr_s.eam.fs Fe

neighbor 0.3 bin
neigh_modify  delay 1

# ------------------- Calculated properties setting---------------------------

compute peratom all pe/atom
compute eatoms all reduce sum c_peratom
compute csym all centro/atom bcc

# ------------------- Thermal properties output ------------------------------

timestep        0.001
thermo 10
thermo_style custom step pe c_eatoms
dump 1 all custom 200 dump.bcc.Fe id type xs ys zs c_peratom

# ------------------- Minimize the total energy ------------------------------

min_style  cg
minimize   1.0e-20 1.0e-20 5000 5000
WARNING: Resetting reneighboring criteria during minimization (../min.cpp:173)
Memory usage per processor = 4.49693 Mbytes
Step PotEng eatoms 
       0   -1020.4699   -1020.4699 
       1   -1020.4699   -1020.4699 
Loop time of 0.0051012 on 1 procs (1 MPI x 1 OpenMP) for 1 steps with 250 atoms

Minimization stats:
  Stopping criterion = linesearch alpha is zero
  Energy initial, next-to-last, final = 
        -1020.46988211     -1020.46988211     -1020.46988211
  Force two-norm initial, final = 1.15412e-13 1.15412e-13
  Force max component initial, final = 8.99281e-15 8.99281e-15
  Final line search alpha, max atom move = 0.5 4.4964e-15
  Iterations, force evaluations = 1 2

Pair  time (%) = 0.00464201 (90.9983)
Neigh time (%) = 0 (0)
Comm  time (%) = 3.17097e-05 (0.621612)
Outpt time (%) = 0 (0)
Other time (%) = 0.000427485 (8.38007)

Nlocal:    250 ave 250 max 250 min
Histogram: 1 0 0 0 0 0 0 0 0 0
Nghost:    1479 ave 1479 max 1479 min
Histogram: 1 0 0 0 0 0 0 0 0 0
Neighs:    8000 ave 8000 max 8000 min
Histogram: 1 0 0 0 0 0 0 0 0 0
FullNghs:  0 ave 0 max 0 min
Histogram: 1 0 0 0 0 0 0 0 0 0

Total # of neighbors = 8000
Ave neighs/atom = 32
Neighbor list builds = 0
Dangerous builds = 0
variable   E equal "c_eatoms"
variable   N equal count(all)
variable   E_cohesive equal ${E}/${N}
variable   E_cohesive equal -1020.4698821149736432/${N}
variable   E_cohesive equal -1020.4698821149736432/250
print "${a}	${E_cohesive}" append lat_param.dat
2.7799999999999998046	-4.081879528459894324

# ------------------- Loop:   ----------------------------------

clear
WARNING: OMP_NUM_THREADS environment is not set. (../comm.cpp:100)
  using 1 OpenMP thread(s) per MPI task
next            k
jump            input_a0.Fe
# This input file is used to calculate the lattice constant of bcc Fe
# E. Mansouri
# KTH, Nuclear Engineering
# ebrman@kth.se

# ------------------ Initial parameter defenition --------------------

units           metal
boundary        p p p
atom_style      atomic

# ----------------- variable setting -----------------------------------

variable        k loop 60               # define the number of loop
variable        a equal 2.75+0.005*$k   # define the various lattice constant “a”
variable        a equal 2.75+0.005*7   

# ----------------- Bcc Fe supercell setting ---------------------------

lattice         bcc $a
lattice         bcc 2.7850000000000001421
Lattice spacing in x,y,z = 2.785 2.785 2.785
region          box block 0 5 0 5 0 5
create_box      1 box
Created orthogonal box = (0 0 0) to (13.925 13.925 13.925)
  1 by 1 by 1 MPI processor grid
create_atoms    1 box
Created 250 atoms

# ----------------- Define Interatomic Potential ---------------------

pair_style hybrid/overlay eam/alloy eam/fs
pair_coeff * * eam/alloy ../potentials/FeCr_d.eam.alloy Fe
pair_coeff * * eam/fs ../potentials/FeCr_s.eam.fs Fe

neighbor 0.3 bin
neigh_modify  delay 1

# ------------------- Calculated properties setting---------------------------

compute peratom all pe/atom
compute eatoms all reduce sum c_peratom
compute csym all centro/atom bcc

# ------------------- Thermal properties output ------------------------------

timestep        0.001
thermo 10
thermo_style custom step pe c_eatoms
dump 1 all custom 200 dump.bcc.Fe id type xs ys zs c_peratom

# ------------------- Minimize the total energy ------------------------------

min_style  cg
minimize   1.0e-20 1.0e-20 5000 5000
WARNING: Resetting reneighboring criteria during minimization (../min.cpp:173)
Memory usage per processor = 4.49693 Mbytes
Step PotEng eatoms 
       0   -1021.7681   -1021.7681 
       1   -1021.7681   -1021.7681 
Loop time of 0.00498414 on 1 procs (1 MPI x 1 OpenMP) for 1 steps with 250 atoms

Minimization stats:
  Stopping criterion = linesearch alpha is zero
  Energy initial, next-to-last, final = 
        -1021.76806959     -1021.76806959     -1021.76806959
  Force two-norm initial, final = 3.55866e-15 3.55866e-15
  Force max component initial, final = 6.66134e-16 6.66134e-16
  Final line search alpha, max atom move = 0.5 3.33067e-16
  Iterations, force evaluations = 1 2

Pair  time (%) = 0.00452805 (90.8491)
Neigh time (%) = 0 (0)
Comm  time (%) = 3.21865e-05 (0.645779)
Outpt time (%) = 0 (0)
Other time (%) = 0.000423908 (8.50514)

Nlocal:    250 ave 250 max 250 min
Histogram: 1 0 0 0 0 0 0 0 0 0
Nghost:    1479 ave 1479 max 1479 min
Histogram: 1 0 0 0 0 0 0 0 0 0
Neighs:    8000 ave 8000 max 8000 min
Histogram: 1 0 0 0 0 0 0 0 0 0
FullNghs:  0 ave 0 max 0 min
Histogram: 1 0 0 0 0 0 0 0 0 0

Total # of neighbors = 8000
Ave neighs/atom = 32
Neighbor list builds = 0
Dangerous builds = 0
variable   E equal "c_eatoms"
variable   N equal count(all)
variable   E_cohesive equal ${E}/${N}
variable   E_cohesive equal -1021.7680695922628047/${N}
variable   E_cohesive equal -1021.7680695922628047/250
print "${a}	${E_cohesive}" append lat_param.dat
2.7850000000000001421	-4.0870722783690514035

# ------------------- Loop:   ----------------------------------

clear
WARNING: OMP_NUM_THREADS environment is not set. (../comm.cpp:100)
  using 1 OpenMP thread(s) per MPI task
next            k
jump            input_a0.Fe
# This input file is used to calculate the lattice constant of bcc Fe
# E. Mansouri
# KTH, Nuclear Engineering
# ebrman@kth.se

# ------------------ Initial parameter defenition --------------------

units           metal
boundary        p p p
atom_style      atomic

# ----------------- variable setting -----------------------------------

variable        k loop 60               # define the number of loop
variable        a equal 2.75+0.005*$k   # define the various lattice constant “a”
variable        a equal 2.75+0.005*8   

# ----------------- Bcc Fe supercell setting ---------------------------

lattice         bcc $a
lattice         bcc 2.7900000000000000355
Lattice spacing in x,y,z = 2.79 2.79 2.79
region          box block 0 5 0 5 0 5
create_box      1 box
Created orthogonal box = (0 0 0) to (13.95 13.95 13.95)
  1 by 1 by 1 MPI processor grid
create_atoms    1 box
Created 250 atoms

# ----------------- Define Interatomic Potential ---------------------

pair_style hybrid/overlay eam/alloy eam/fs
pair_coeff * * eam/alloy ../potentials/FeCr_d.eam.alloy Fe
pair_coeff * * eam/fs ../potentials/FeCr_s.eam.fs Fe

neighbor 0.3 bin
neigh_modify  delay 1

# ------------------- Calculated properties setting---------------------------

compute peratom all pe/atom
compute eatoms all reduce sum c_peratom
compute csym all centro/atom bcc

# ------------------- Thermal properties output ------------------------------

timestep        0.001
thermo 10
thermo_style custom step pe c_eatoms
dump 1 all custom 200 dump.bcc.Fe id type xs ys zs c_peratom

# ------------------- Minimize the total energy ------------------------------

min_style  cg
minimize   1.0e-20 1.0e-20 5000 5000
WARNING: Resetting reneighboring criteria during minimization (../min.cpp:173)
Memory usage per processor = 4.49693 Mbytes
Step PotEng eatoms 
       0   -1022.9774   -1022.9774 
       1   -1022.9774   -1022.9774 
Loop time of 0.00481701 on 1 procs (1 MPI x 1 OpenMP) for 1 steps with 250 atoms

Minimization stats:
  Stopping criterion = linesearch alpha is zero
  Energy initial, next-to-last, final = 
        -1022.97738586     -1022.97738586     -1022.97738586
  Force two-norm initial, final = 1.03575e-13 1.03575e-13
  Force max component initial, final = 9.38442e-15 9.38442e-15
  Final line search alpha, max atom move = 0.5 4.69221e-15
  Iterations, force evaluations = 1 2

Pair  time (%) = 0.00436997 (90.7197)
Neigh time (%) = 0 (0)
Comm  time (%) = 2.88486e-05 (0.598891)
Outpt time (%) = 0 (0)
Other time (%) = 0.000418186 (8.68145)

Nlocal:    250 ave 250 max 250 min
Histogram: 1 0 0 0 0 0 0 0 0 0
Nghost:    1479 ave 1479 max 1479 min
Histogram: 1 0 0 0 0 0 0 0 0 0
Neighs:    8000 ave 8000 max 8000 min
Histogram: 1 0 0 0 0 0 0 0 0 0
FullNghs:  0 ave 0 max 0 min
Histogram: 1 0 0 0 0 0 0 0 0 0

Total # of neighbors = 8000
Ave neighs/atom = 32
Neighbor list builds = 0
Dangerous builds = 0
variable   E equal "c_eatoms"
variable   N equal count(all)
variable   E_cohesive equal ${E}/${N}
variable   E_cohesive equal -1022.97738585952618/${N}
variable   E_cohesive equal -1022.97738585952618/250
print "${a}	${E_cohesive}" append lat_param.dat
2.7900000000000000355	-4.0919095434381045351

# ------------------- Loop:   ----------------------------------

clear
WARNING: OMP_NUM_THREADS environment is not set. (../comm.cpp:100)
  using 1 OpenMP thread(s) per MPI task
next            k
jump            input_a0.Fe
# This input file is used to calculate the lattice constant of bcc Fe
# E. Mansouri
# KTH, Nuclear Engineering
# ebrman@kth.se

# ------------------ Initial parameter defenition --------------------

units           metal
boundary        p p p
atom_style      atomic

# ----------------- variable setting -----------------------------------

variable        k loop 60               # define the number of loop
variable        a equal 2.75+0.005*$k   # define the various lattice constant “a”
variable        a equal 2.75+0.005*9   

# ----------------- Bcc Fe supercell setting ---------------------------

lattice         bcc $a
lattice         bcc 2.7949999999999999289
Lattice spacing in x,y,z = 2.795 2.795 2.795
region          box block 0 5 0 5 0 5
create_box      1 box
Created orthogonal box = (0 0 0) to (13.975 13.975 13.975)
  1 by 1 by 1 MPI processor grid
create_atoms    1 box
Created 250 atoms

# ----------------- Define Interatomic Potential ---------------------

pair_style hybrid/overlay eam/alloy eam/fs
pair_coeff * * eam/alloy ../potentials/FeCr_d.eam.alloy Fe
pair_coeff * * eam/fs ../potentials/FeCr_s.eam.fs Fe

neighbor 0.3 bin
neigh_modify  delay 1

# ------------------- Calculated properties setting---------------------------

compute peratom all pe/atom
compute eatoms all reduce sum c_peratom
compute csym all centro/atom bcc

# ------------------- Thermal properties output ------------------------------

timestep        0.001
thermo 10
thermo_style custom step pe c_eatoms
dump 1 all custom 200 dump.bcc.Fe id type xs ys zs c_peratom

# ------------------- Minimize the total energy ------------------------------

min_style  cg
minimize   1.0e-20 1.0e-20 5000 5000
WARNING: Resetting reneighboring criteria during minimization (../min.cpp:173)
Memory usage per processor = 4.49693 Mbytes
Step PotEng eatoms 
       0    -1024.098    -1024.098 
       1    -1024.098    -1024.098 
Loop time of 0.00485682 on 1 procs (1 MPI x 1 OpenMP) for 1 steps with 250 atoms

Minimization stats:
  Stopping criterion = linesearch alpha is zero
  Energy initial, next-to-last, final = 
        -1024.09804509     -1024.09804509     -1024.09804509
  Force two-norm initial, final = 1.05428e-13 1.05428e-13
  Force max component initial, final = 1.00753e-14 1.00753e-14
  Final line search alpha, max atom move = 0.5 5.03764e-15
  Iterations, force evaluations = 1 2

Pair  time (%) = 0.00440097 (90.6141)
Neigh time (%) = 0 (0)
Comm  time (%) = 3.00407e-05 (0.618526)
Outpt time (%) = 0 (0)
Other time (%) = 0.000425816 (8.76737)

Nlocal:    250 ave 250 max 250 min
Histogram: 1 0 0 0 0 0 0 0 0 0
Nghost:    1479 ave 1479 max 1479 min
Histogram: 1 0 0 0 0 0 0 0 0 0
Neighs:    8000 ave 8000 max 8000 min
Histogram: 1 0 0 0 0 0 0 0 0 0
FullNghs:  0 ave 0 max 0 min
Histogram: 1 0 0 0 0 0 0 0 0 0

Total # of neighbors = 8000
Ave neighs/atom = 32
Neighbor list builds = 0
Dangerous builds = 0
variable   E equal "c_eatoms"
variable   N equal count(all)
variable   E_cohesive equal ${E}/${N}
variable   E_cohesive equal -1024.0980450938707236/${N}
variable   E_cohesive equal -1024.0980450938707236/250
print "${a}	${E_cohesive}" append lat_param.dat
2.7949999999999999289	-4.0963921803754832496

# ------------------- Loop:   ----------------------------------

clear
WARNING: OMP_NUM_THREADS environment is not set. (../comm.cpp:100)
  using 1 OpenMP thread(s) per MPI task
next            k
jump            input_a0.Fe
# This input file is used to calculate the lattice constant of bcc Fe
# E. Mansouri
# KTH, Nuclear Engineering
# ebrman@kth.se

# ------------------ Initial parameter defenition --------------------

units           metal
boundary        p p p
atom_style      atomic

# ----------------- variable setting -----------------------------------

variable        k loop 60               # define the number of loop
variable        a equal 2.75+0.005*$k   # define the various lattice constant “a”
variable        a equal 2.75+0.005*10   

# ----------------- Bcc Fe supercell setting ---------------------------

lattice         bcc $a
lattice         bcc 2.7999999999999998224
Lattice spacing in x,y,z = 2.8 2.8 2.8
region          box block 0 5 0 5 0 5
create_box      1 box
Created orthogonal box = (0 0 0) to (14 14 14)
  1 by 1 by 1 MPI processor grid
create_atoms    1 box
Created 250 atoms

# ----------------- Define Interatomic Potential ---------------------

pair_style hybrid/overlay eam/alloy eam/fs
pair_coeff * * eam/alloy ../potentials/FeCr_d.eam.alloy Fe
pair_coeff * * eam/fs ../potentials/FeCr_s.eam.fs Fe

neighbor 0.3 bin
neigh_modify  delay 1

# ------------------- Calculated properties setting---------------------------

compute peratom all pe/atom
compute eatoms all reduce sum c_peratom
compute csym all centro/atom bcc

# ------------------- Thermal properties output ------------------------------

timestep        0.001
thermo 10
thermo_style custom step pe c_eatoms
dump 1 all custom 200 dump.bcc.Fe id type xs ys zs c_peratom

# ------------------- Minimize the total energy ------------------------------

min_style  cg
minimize   1.0e-20 1.0e-20 5000 5000
WARNING: Resetting reneighboring criteria during minimization (../min.cpp:173)
Memory usage per processor = 4.49367 Mbytes
Step PotEng eatoms 
       0   -1025.1303   -1025.1303 
       1   -1025.1303   -1025.1303 
Loop time of 0.00482082 on 1 procs (1 MPI x 1 OpenMP) for 1 steps with 250 atoms

Minimization stats:
  Stopping criterion = linesearch alpha is zero
  Energy initial, next-to-last, final = 
        -1025.13026278     -1025.13026278     -1025.13026278
  Force two-norm initial, final = 9.23941e-14 9.23941e-14
  Force max component initial, final = 8.7738e-15 8.7738e-15
  Final line search alpha, max atom move = 0.5 4.3869e-15
  Iterations, force evaluations = 1 2

Pair  time (%) = 0.00435328 (90.3017)
Neigh time (%) = 0 (0)
Comm  time (%) = 2.81334e-05 (0.583581)
Outpt time (%) = 0 (0)
Other time (%) = 0.000439405 (9.11474)

Nlocal:    250 ave 250 max 250 min
Histogram: 1 0 0 0 0 0 0 0 0 0
Nghost:    1208 ave 1208 max 1208 min
Histogram: 1 0 0 0 0 0 0 0 0 0
Neighs:    7775 ave 7775 max 7775 min
Histogram: 1 0 0 0 0 0 0 0 0 0
FullNghs:  0 ave 0 max 0 min
Histogram: 1 0 0 0 0 0 0 0 0 0

Total # of neighbors = 7775
Ave neighs/atom = 31.1
Neighbor list builds = 0
Dangerous builds = 0
variable   E equal "c_eatoms"
variable   N equal count(all)
variable   E_cohesive equal ${E}/${N}
variable   E_cohesive equal -1025.1302627830295933/${N}
variable   E_cohesive equal -1025.1302627830295933/250
print "${a}	${E_cohesive}" append lat_param.dat
2.7999999999999998224	-4.1005210511321186218

# ------------------- Loop:   ----------------------------------

clear
WARNING: OMP_NUM_THREADS environment is not set. (../comm.cpp:100)
  using 1 OpenMP thread(s) per MPI task
next            k
jump            input_a0.Fe
# This input file is used to calculate the lattice constant of bcc Fe
# E. Mansouri
# KTH, Nuclear Engineering
# ebrman@kth.se

# ------------------ Initial parameter defenition --------------------

units           metal
boundary        p p p
atom_style      atomic

# ----------------- variable setting -----------------------------------

variable        k loop 60               # define the number of loop
variable        a equal 2.75+0.005*$k   # define the various lattice constant “a”
variable        a equal 2.75+0.005*11   

# ----------------- Bcc Fe supercell setting ---------------------------

lattice         bcc $a
lattice         bcc 2.8050000000000001599
Lattice spacing in x,y,z = 2.805 2.805 2.805
region          box block 0 5 0 5 0 5
create_box      1 box
Created orthogonal box = (0 0 0) to (14.025 14.025 14.025)
  1 by 1 by 1 MPI processor grid
create_atoms    1 box
Created 250 atoms

# ----------------- Define Interatomic Potential ---------------------

pair_style hybrid/overlay eam/alloy eam/fs
pair_coeff * * eam/alloy ../potentials/FeCr_d.eam.alloy Fe
pair_coeff * * eam/fs ../potentials/FeCr_s.eam.fs Fe

neighbor 0.3 bin
neigh_modify  delay 1

# ------------------- Calculated properties setting---------------------------

compute peratom all pe/atom
compute eatoms all reduce sum c_peratom
compute csym all centro/atom bcc

# ------------------- Thermal properties output ------------------------------

timestep        0.001
thermo 10
thermo_style custom step pe c_eatoms
dump 1 all custom 200 dump.bcc.Fe id type xs ys zs c_peratom

# ------------------- Minimize the total energy ------------------------------

min_style  cg
minimize   1.0e-20 1.0e-20 5000 5000
WARNING: Resetting reneighboring criteria during minimization (../min.cpp:173)
Memory usage per processor = 4.47457 Mbytes
Step PotEng eatoms 
       0   -1026.0742   -1026.0742 
       1   -1026.0742   -1026.0742 
Loop time of 0.00459003 on 1 procs (1 MPI x 1 OpenMP) for 1 steps with 250 atoms

Minimization stats:
  Stopping criterion = linesearch alpha is zero
  Energy initial, next-to-last, final = 
        -1026.07417478     -1026.07417478     -1026.07417478
  Force two-norm initial, final = 3.28462e-14 3.28462e-14
  Force max component initial, final = 4.45043e-15 4.45043e-15
  Final line search alpha, max atom move = 0.5 2.22522e-15
  Iterations, force evaluations = 1 2

Pair  time (%) = 0.00415301 (90.4789)
Neigh time (%) = 0 (0)
Comm  time (%) = 2.24113e-05 (0.488261)
Outpt time (%) = 0 (0)
Other time (%) = 0.00041461 (9.03283)

Nlocal:    250 ave 250 max 250 min
Histogram: 1 0 0 0 0 0 0 0 0 0
Nghost:    991 ave 991 max 991 min
Histogram: 1 0 0 0 0 0 0 0 0 0
Neighs:    7250 ave 7250 max 7250 min
Histogram: 1 0 0 0 0 0 0 0 0 0
FullNghs:  0 ave 0 max 0 min
Histogram: 1 0 0 0 0 0 0 0 0 0

Total # of neighbors = 7250
Ave neighs/atom = 29
Neighbor list builds = 0
Dangerous builds = 0
variable   E equal "c_eatoms"
variable   N equal count(all)
variable   E_cohesive equal ${E}/${N}
variable   E_cohesive equal -1026.0741747799838777/${N}
variable   E_cohesive equal -1026.0741747799838777/250
print "${a}	${E_cohesive}" append lat_param.dat
2.8050000000000001599	-4.1042966991199358873

# ------------------- Loop:   ----------------------------------

clear
WARNING: OMP_NUM_THREADS environment is not set. (../comm.cpp:100)
  using 1 OpenMP thread(s) per MPI task
next            k
jump            input_a0.Fe
# This input file is used to calculate the lattice constant of bcc Fe
# E. Mansouri
# KTH, Nuclear Engineering
# ebrman@kth.se

# ------------------ Initial parameter defenition --------------------

units           metal
boundary        p p p
atom_style      atomic

# ----------------- variable setting -----------------------------------

variable        k loop 60               # define the number of loop
variable        a equal 2.75+0.005*$k   # define the various lattice constant “a”
variable        a equal 2.75+0.005*12   

# ----------------- Bcc Fe supercell setting ---------------------------

lattice         bcc $a
lattice         bcc 2.8100000000000000533
Lattice spacing in x,y,z = 2.81 2.81 2.81
region          box block 0 5 0 5 0 5
create_box      1 box
Created orthogonal box = (0 0 0) to (14.05 14.05 14.05)
  1 by 1 by 1 MPI processor grid
create_atoms    1 box
Created 250 atoms

# ----------------- Define Interatomic Potential ---------------------

pair_style hybrid/overlay eam/alloy eam/fs
pair_coeff * * eam/alloy ../potentials/FeCr_d.eam.alloy Fe
pair_coeff * * eam/fs ../potentials/FeCr_s.eam.fs Fe

neighbor 0.3 bin
neigh_modify  delay 1

# ------------------- Calculated properties setting---------------------------

compute peratom all pe/atom
compute eatoms all reduce sum c_peratom
compute csym all centro/atom bcc

# ------------------- Thermal properties output ------------------------------

timestep        0.001
thermo 10
thermo_style custom step pe c_eatoms
dump 1 all custom 200 dump.bcc.Fe id type xs ys zs c_peratom

# ------------------- Minimize the total energy ------------------------------

min_style  cg
minimize   1.0e-20 1.0e-20 5000 5000
WARNING: Resetting reneighboring criteria during minimization (../min.cpp:173)
Memory usage per processor = 4.47457 Mbytes
Step PotEng eatoms 
       0   -1026.9296   -1026.9296 
       1   -1026.9296   -1026.9296 
Loop time of 0.00493598 on 1 procs (1 MPI x 1 OpenMP) for 1 steps with 250 atoms

Minimization stats:
  Stopping criterion = linesearch alpha is zero
  Energy initial, next-to-last, final = 
        -1026.92959618     -1026.92959618     -1026.92959618
  Force two-norm initial, final = 1.24476e-13 1.24476e-13
  Force max component initial, final = 9.28424e-15 9.28424e-15
  Final line search alpha, max atom move = 0.5 4.64212e-15
  Iterations, force evaluations = 1 2

Pair  time (%) = 0.00449085 (90.982)
Neigh time (%) = 0 (0)
Comm  time (%) = 2.38419e-05 (0.483022)
Outpt time (%) = 0 (0)
Other time (%) = 0.000421286 (8.53499)

Nlocal:    250 ave 250 max 250 min
Histogram: 1 0 0 0 0 0 0 0 0 0
Nghost:    991 ave 991 max 991 min
Histogram: 1 0 0 0 0 0 0 0 0 0
Neighs:    7250 ave 7250 max 7250 min
Histogram: 1 0 0 0 0 0 0 0 0 0
FullNghs:  0 ave 0 max 0 min
Histogram: 1 0 0 0 0 0 0 0 0 0

Total # of neighbors = 7250
Ave neighs/atom = 29
Neighbor list builds = 0
Dangerous builds = 0
variable   E equal "c_eatoms"
variable   N equal count(all)
variable   E_cohesive equal ${E}/${N}
variable   E_cohesive equal -1026.9295961821501351/${N}
variable   E_cohesive equal -1026.9295961821501351/250
print "${a}	${E_cohesive}" append lat_param.dat
2.8100000000000000533	-4.1077183847286002916

# ------------------- Loop:   ----------------------------------

clear
WARNING: OMP_NUM_THREADS environment is not set. (../comm.cpp:100)
  using 1 OpenMP thread(s) per MPI task
next            k
jump            input_a0.Fe
# This input file is used to calculate the lattice constant of bcc Fe
# E. Mansouri
# KTH, Nuclear Engineering
# ebrman@kth.se

# ------------------ Initial parameter defenition --------------------

units           metal
boundary        p p p
atom_style      atomic

# ----------------- variable setting -----------------------------------

variable        k loop 60               # define the number of loop
variable        a equal 2.75+0.005*$k   # define the various lattice constant “a”
variable        a equal 2.75+0.005*13   

# ----------------- Bcc Fe supercell setting ---------------------------

lattice         bcc $a
lattice         bcc 2.8149999999999999467
Lattice spacing in x,y,z = 2.815 2.815 2.815
region          box block 0 5 0 5 0 5
create_box      1 box
Created orthogonal box = (0 0 0) to (14.075 14.075 14.075)
  1 by 1 by 1 MPI processor grid
create_atoms    1 box
Created 250 atoms

# ----------------- Define Interatomic Potential ---------------------

pair_style hybrid/overlay eam/alloy eam/fs
pair_coeff * * eam/alloy ../potentials/FeCr_d.eam.alloy Fe
pair_coeff * * eam/fs ../potentials/FeCr_s.eam.fs Fe

neighbor 0.3 bin
neigh_modify  delay 1

# ------------------- Calculated properties setting---------------------------

compute peratom all pe/atom
compute eatoms all reduce sum c_peratom
compute csym all centro/atom bcc

# ------------------- Thermal properties output ------------------------------

timestep        0.001
thermo 10
thermo_style custom step pe c_eatoms
dump 1 all custom 200 dump.bcc.Fe id type xs ys zs c_peratom

# ------------------- Minimize the total energy ------------------------------

min_style  cg
minimize   1.0e-20 1.0e-20 5000 5000
WARNING: Resetting reneighboring criteria during minimization (../min.cpp:173)
Memory usage per processor = 4.47457 Mbytes
Step PotEng eatoms 
       0   -1027.6963   -1027.6963 
       4   -1027.6963   -1027.6963 
Loop time of 0.00858021 on 1 procs (1 MPI x 1 OpenMP) for 4 steps with 250 atoms

Minimization stats:
  Stopping criterion = linesearch alpha is zero
  Energy initial, next-to-last, final = 
        -1027.69626225     -1027.69626225     -1027.69626225
  Force two-norm initial, final = 1.33952e-13 3.40506e-10
  Force max component initial, final = 1.25455e-14 3.41059e-11
  Final line search alpha, max atom move = 0.5 1.7053e-11
  Iterations, force evaluations = 4 5

Pair  time (%) = 0.00805402 (93.8674)
Neigh time (%) = 0 (0)
Comm  time (%) = 4.29153e-05 (0.500167)
Outpt time (%) = 0 (0)
Other time (%) = 0.000483274 (5.63243)

Nlocal:    250 ave 250 max 250 min
Histogram: 1 0 0 0 0 0 0 0 0 0
Nghost:    991 ave 991 max 991 min
Histogram: 1 0 0 0 0 0 0 0 0 0
Neighs:    7250 ave 7250 max 7250 min
Histogram: 1 0 0 0 0 0 0 0 0 0
FullNghs:  0 ave 0 max 0 min
Histogram: 1 0 0 0 0 0 0 0 0 0

Total # of neighbors = 7250
Ave neighs/atom = 29
Neighbor list builds = 0
Dangerous builds = 0
variable   E equal "c_eatoms"
variable   N equal count(all)
variable   E_cohesive equal ${E}/${N}
variable   E_cohesive equal -1027.6962622547403043/${N}
variable   E_cohesive equal -1027.6962622547403043/250
print "${a}	${E_cohesive}" append lat_param.dat
2.8149999999999999467	-4.1107850490189612458

# ------------------- Loop:   ----------------------------------

clear
WARNING: OMP_NUM_THREADS environment is not set. (../comm.cpp:100)
  using 1 OpenMP thread(s) per MPI task
next            k
jump            input_a0.Fe
# This input file is used to calculate the lattice constant of bcc Fe
# E. Mansouri
# KTH, Nuclear Engineering
# ebrman@kth.se

# ------------------ Initial parameter defenition --------------------

units           metal
boundary        p p p
atom_style      atomic

# ----------------- variable setting -----------------------------------

variable        k loop 60               # define the number of loop
variable        a equal 2.75+0.005*$k   # define the various lattice constant “a”
variable        a equal 2.75+0.005*14   

# ----------------- Bcc Fe supercell setting ---------------------------

lattice         bcc $a
lattice         bcc 2.8199999999999998401
Lattice spacing in x,y,z = 2.82 2.82 2.82
region          box block 0 5 0 5 0 5
create_box      1 box
Created orthogonal box = (0 0 0) to (14.1 14.1 14.1)
  1 by 1 by 1 MPI processor grid
create_atoms    1 box
Created 250 atoms

# ----------------- Define Interatomic Potential ---------------------

pair_style hybrid/overlay eam/alloy eam/fs
pair_coeff * * eam/alloy ../potentials/FeCr_d.eam.alloy Fe
pair_coeff * * eam/fs ../potentials/FeCr_s.eam.fs Fe

neighbor 0.3 bin
neigh_modify  delay 1

# ------------------- Calculated properties setting---------------------------

compute peratom all pe/atom
compute eatoms all reduce sum c_peratom
compute csym all centro/atom bcc

# ------------------- Thermal properties output ------------------------------

timestep        0.001
thermo 10
thermo_style custom step pe c_eatoms
dump 1 all custom 200 dump.bcc.Fe id type xs ys zs c_peratom

# ------------------- Minimize the total energy ------------------------------

min_style  cg
minimize   1.0e-20 1.0e-20 5000 5000
WARNING: Resetting reneighboring criteria during minimization (../min.cpp:173)
Memory usage per processor = 4.47457 Mbytes
Step PotEng eatoms 
       0   -1028.3739   -1028.3739 
       1   -1028.3739   -1028.3739 
Loop time of 0.00484395 on 1 procs (1 MPI x 1 OpenMP) for 1 steps with 250 atoms

Minimization stats:
  Stopping criterion = linesearch alpha is zero
  Energy initial, next-to-last, final = 
        -1028.37390918     -1028.37390918     -1028.37390918
  Force two-norm initial, final = 5.38725e-14 5.38725e-14
  Force max component initial, final = 4.51939e-15 4.51939e-15
  Final line search alpha, max atom move = 0.5 2.25969e-15
  Iterations, force evaluations = 1 2

Pair  time (%) = 0.00440407 (90.9189)
Neigh time (%) = 0 (0)
Comm  time (%) = 2.3365e-05 (0.482355)
Outpt time (%) = 0 (0)
Other time (%) = 0.000416517 (8.59871)

Nlocal:    250 ave 250 max 250 min
Histogram: 1 0 0 0 0 0 0 0 0 0
Nghost:    991 ave 991 max 991 min
Histogram: 1 0 0 0 0 0 0 0 0 0
Neighs:    7250 ave 7250 max 7250 min
Histogram: 1 0 0 0 0 0 0 0 0 0
FullNghs:  0 ave 0 max 0 min
Histogram: 1 0 0 0 0 0 0 0 0 0

Total # of neighbors = 7250
Ave neighs/atom = 29
Neighbor list builds = 0
Dangerous builds = 0
variable   E equal "c_eatoms"
variable   N equal count(all)
variable   E_cohesive equal ${E}/${N}
variable   E_cohesive equal -1028.3739091755978734/${N}
variable   E_cohesive equal -1028.3739091755978734/250
print "${a}	${E_cohesive}" append lat_param.dat
2.8199999999999998401	-4.1134956367023916002

# ------------------- Loop:   ----------------------------------

clear
WARNING: OMP_NUM_THREADS environment is not set. (../comm.cpp:100)
  using 1 OpenMP thread(s) per MPI task
next            k
jump            input_a0.Fe
# This input file is used to calculate the lattice constant of bcc Fe
# E. Mansouri
# KTH, Nuclear Engineering
# ebrman@kth.se

# ------------------ Initial parameter defenition --------------------

units           metal
boundary        p p p
atom_style      atomic

# ----------------- variable setting -----------------------------------

variable        k loop 60               # define the number of loop
variable        a equal 2.75+0.005*$k   # define the various lattice constant “a”
variable        a equal 2.75+0.005*15   

# ----------------- Bcc Fe supercell setting ---------------------------

lattice         bcc $a
lattice         bcc 2.8250000000000001776
Lattice spacing in x,y,z = 2.825 2.825 2.825
region          box block 0 5 0 5 0 5
create_box      1 box
Created orthogonal box = (0 0 0) to (14.125 14.125 14.125)
  1 by 1 by 1 MPI processor grid
create_atoms    1 box
Created 250 atoms

# ----------------- Define Interatomic Potential ---------------------

pair_style hybrid/overlay eam/alloy eam/fs
pair_coeff * * eam/alloy ../potentials/FeCr_d.eam.alloy Fe
pair_coeff * * eam/fs ../potentials/FeCr_s.eam.fs Fe

neighbor 0.3 bin
neigh_modify  delay 1

# ------------------- Calculated properties setting---------------------------

compute peratom all pe/atom
compute eatoms all reduce sum c_peratom
compute csym all centro/atom bcc

# ------------------- Thermal properties output ------------------------------

timestep        0.001
thermo 10
thermo_style custom step pe c_eatoms
dump 1 all custom 200 dump.bcc.Fe id type xs ys zs c_peratom

# ------------------- Minimize the total energy ------------------------------

min_style  cg
minimize   1.0e-20 1.0e-20 5000 5000
WARNING: Resetting reneighboring criteria during minimization (../min.cpp:173)
Memory usage per processor = 4.47457 Mbytes
Step PotEng eatoms 
       0   -1028.9623   -1028.9623 
       1   -1028.9623   -1028.9623 
Loop time of 0.00458384 on 1 procs (1 MPI x 1 OpenMP) for 1 steps with 250 atoms

Minimization stats:
  Stopping criterion = linesearch alpha is zero
  Energy initial, next-to-last, final = 
        -1028.96227389     -1028.96227389     -1028.96227389
  Force two-norm initial, final = 1.05872e-13 1.05872e-13
  Force max component initial, final = 8.96071e-15 8.96071e-15
  Final line search alpha, max atom move = 0.5 4.48036e-15
  Iterations, force evaluations = 1 2

Pair  time (%) = 0.00414467 (90.4192)
Neigh time (%) = 0 (0)
Comm  time (%) = 2.36034e-05 (0.514928)
Outpt time (%) = 0 (0)
Other time (%) = 0.000415564 (9.06585)

Nlocal:    250 ave 250 max 250 min
Histogram: 1 0 0 0 0 0 0 0 0 0
Nghost:    991 ave 991 max 991 min
Histogram: 1 0 0 0 0 0 0 0 0 0
Neighs:    7250 ave 7250 max 7250 min
Histogram: 1 0 0 0 0 0 0 0 0 0
FullNghs:  0 ave 0 max 0 min
Histogram: 1 0 0 0 0 0 0 0 0 0

Total # of neighbors = 7250
Ave neighs/atom = 29
Neighbor list builds = 0
Dangerous builds = 0
variable   E equal "c_eatoms"
variable   N equal count(all)
variable   E_cohesive equal ${E}/${N}
variable   E_cohesive equal -1028.9622738886869229/${N}
variable   E_cohesive equal -1028.9622738886869229/250
print "${a}	${E_cohesive}" append lat_param.dat
2.8250000000000001776	-4.1158490955547479828

# ------------------- Loop:   ----------------------------------

clear
WARNING: OMP_NUM_THREADS environment is not set. (../comm.cpp:100)
  using 1 OpenMP thread(s) per MPI task
next            k
jump            input_a0.Fe
# This input file is used to calculate the lattice constant of bcc Fe
# E. Mansouri
# KTH, Nuclear Engineering
# ebrman@kth.se

# ------------------ Initial parameter defenition --------------------

units           metal
boundary        p p p
atom_style      atomic

# ----------------- variable setting -----------------------------------

variable        k loop 60               # define the number of loop
variable        a equal 2.75+0.005*$k   # define the various lattice constant “a”
variable        a equal 2.75+0.005*16   

# ----------------- Bcc Fe supercell setting ---------------------------

lattice         bcc $a
lattice         bcc 2.8300000000000000711
Lattice spacing in x,y,z = 2.83 2.83 2.83
region          box block 0 5 0 5 0 5
create_box      1 box
Created orthogonal box = (0 0 0) to (14.15 14.15 14.15)
  1 by 1 by 1 MPI processor grid
create_atoms    1 box
Created 250 atoms

# ----------------- Define Interatomic Potential ---------------------

pair_style hybrid/overlay eam/alloy eam/fs
pair_coeff * * eam/alloy ../potentials/FeCr_d.eam.alloy Fe
pair_coeff * * eam/fs ../potentials/FeCr_s.eam.fs Fe

neighbor 0.3 bin
neigh_modify  delay 1

# ------------------- Calculated properties setting---------------------------

compute peratom all pe/atom
compute eatoms all reduce sum c_peratom
compute csym all centro/atom bcc

# ------------------- Thermal properties output ------------------------------

timestep        0.001
thermo 10
thermo_style custom step pe c_eatoms
dump 1 all custom 200 dump.bcc.Fe id type xs ys zs c_peratom

# ------------------- Minimize the total energy ------------------------------

min_style  cg
minimize   1.0e-20 1.0e-20 5000 5000
WARNING: Resetting reneighboring criteria during minimization (../min.cpp:173)
Memory usage per processor = 4.47457 Mbytes
Step PotEng eatoms 
       0   -1029.4611   -1029.4611 
       1   -1029.4611   -1029.4611 
Loop time of 0.00458002 on 1 procs (1 MPI x 1 OpenMP) for 1 steps with 250 atoms

Minimization stats:
  Stopping criterion = linesearch alpha is zero
  Energy initial, next-to-last, final = 
        -1029.46109398     -1029.46109398     -1029.46109398
  Force two-norm initial, final = 1.55081e-13 1.55081e-13
  Force max component initial, final = 1.50158e-14 1.50158e-14
  Final line search alpha, max atom move = 0.5 7.50788e-15
  Iterations, force evaluations = 1 2

Pair  time (%) = 0.00414371 (90.4737)
Neigh time (%) = 0 (0)
Comm  time (%) = 2.21729e-05 (0.484123)
Outpt time (%) = 0 (0)
Other time (%) = 0.000414133 (9.04217)

Nlocal:    250 ave 250 max 250 min
Histogram: 1 0 0 0 0 0 0 0 0 0
Nghost:    991 ave 991 max 991 min
Histogram: 1 0 0 0 0 0 0 0 0 0
Neighs:    7250 ave 7250 max 7250 min
Histogram: 1 0 0 0 0 0 0 0 0 0
FullNghs:  0 ave 0 max 0 min
Histogram: 1 0 0 0 0 0 0 0 0 0

Total # of neighbors = 7250
Ave neighs/atom = 29
Neighbor list builds = 0
Dangerous builds = 0
variable   E equal "c_eatoms"
variable   N equal count(all)
variable   E_cohesive equal ${E}/${N}
variable   E_cohesive equal -1029.4610939832016356/${N}
variable   E_cohesive equal -1029.4610939832016356/250
print "${a}	${E_cohesive}" append lat_param.dat
2.8300000000000000711	-4.1178443759328064999

# ------------------- Loop:   ----------------------------------

clear
WARNING: OMP_NUM_THREADS environment is not set. (../comm.cpp:100)
  using 1 OpenMP thread(s) per MPI task
next            k
jump            input_a0.Fe
# This input file is used to calculate the lattice constant of bcc Fe
# E. Mansouri
# KTH, Nuclear Engineering
# ebrman@kth.se

# ------------------ Initial parameter defenition --------------------

units           metal
boundary        p p p
atom_style      atomic

# ----------------- variable setting -----------------------------------

variable        k loop 60               # define the number of loop
variable        a equal 2.75+0.005*$k   # define the various lattice constant “a”
variable        a equal 2.75+0.005*17   

# ----------------- Bcc Fe supercell setting ---------------------------

lattice         bcc $a
lattice         bcc 2.8349999999999999645
Lattice spacing in x,y,z = 2.835 2.835 2.835
region          box block 0 5 0 5 0 5
create_box      1 box
Created orthogonal box = (0 0 0) to (14.175 14.175 14.175)
  1 by 1 by 1 MPI processor grid
create_atoms    1 box
Created 250 atoms

# ----------------- Define Interatomic Potential ---------------------

pair_style hybrid/overlay eam/alloy eam/fs
pair_coeff * * eam/alloy ../potentials/FeCr_d.eam.alloy Fe
pair_coeff * * eam/fs ../potentials/FeCr_s.eam.fs Fe

neighbor 0.3 bin
neigh_modify  delay 1

# ------------------- Calculated properties setting---------------------------

compute peratom all pe/atom
compute eatoms all reduce sum c_peratom
compute csym all centro/atom bcc

# ------------------- Thermal properties output ------------------------------

timestep        0.001
thermo 10
thermo_style custom step pe c_eatoms
dump 1 all custom 200 dump.bcc.Fe id type xs ys zs c_peratom

# ------------------- Minimize the total energy ------------------------------

min_style  cg
minimize   1.0e-20 1.0e-20 5000 5000
WARNING: Resetting reneighboring criteria during minimization (../min.cpp:173)
Memory usage per processor = 4.47457 Mbytes
Step PotEng eatoms 
       0   -1029.8701   -1029.8701 
       1   -1029.8701   -1029.8701 
Loop time of 0.00465012 on 1 procs (1 MPI x 1 OpenMP) for 1 steps with 250 atoms

Minimization stats:
  Stopping criterion = linesearch alpha is zero
  Energy initial, next-to-last, final = 
        -1029.87010794     -1029.87010794     -1029.87010794
  Force two-norm initial, final = 1.19397e-13 1.19397e-13
  Force max component initial, final = 1.13468e-14 1.13468e-14
  Final line search alpha, max atom move = 0.5 5.67341e-15
  Iterations, force evaluations = 1 2

Pair  time (%) = 0.0042069 (90.4686)
Neigh time (%) = 0 (0)
Comm  time (%) = 2.19345e-05 (0.471698)
Outpt time (%) = 0 (0)
Other time (%) = 0.000421286 (9.05968)

Nlocal:    250 ave 250 max 250 min
Histogram: 1 0 0 0 0 0 0 0 0 0
Nghost:    991 ave 991 max 991 min
Histogram: 1 0 0 0 0 0 0 0 0 0
Neighs:    7250 ave 7250 max 7250 min
Histogram: 1 0 0 0 0 0 0 0 0 0
FullNghs:  0 ave 0 max 0 min
Histogram: 1 0 0 0 0 0 0 0 0 0

Total # of neighbors = 7250
Ave neighs/atom = 29
Neighbor list builds = 0
Dangerous builds = 0
variable   E equal "c_eatoms"
variable   N equal count(all)
variable   E_cohesive equal ${E}/${N}
variable   E_cohesive equal -1029.8701079352949819/${N}
variable   E_cohesive equal -1029.8701079352949819/250
print "${a}	${E_cohesive}" append lat_param.dat
2.8349999999999999645	-4.1194804317411799488

# ------------------- Loop:   ----------------------------------

clear
WARNING: OMP_NUM_THREADS environment is not set. (../comm.cpp:100)
  using 1 OpenMP thread(s) per MPI task
next            k
jump            input_a0.Fe
# This input file is used to calculate the lattice constant of bcc Fe
# E. Mansouri
# KTH, Nuclear Engineering
# ebrman@kth.se

# ------------------ Initial parameter defenition --------------------

units           metal
boundary        p p p
atom_style      atomic

# ----------------- variable setting -----------------------------------

variable        k loop 60               # define the number of loop
variable        a equal 2.75+0.005*$k   # define the various lattice constant “a”
variable        a equal 2.75+0.005*18   

# ----------------- Bcc Fe supercell setting ---------------------------

lattice         bcc $a
lattice         bcc 2.8399999999999998579
Lattice spacing in x,y,z = 2.84 2.84 2.84
region          box block 0 5 0 5 0 5
create_box      1 box
Created orthogonal box = (0 0 0) to (14.2 14.2 14.2)
  1 by 1 by 1 MPI processor grid
create_atoms    1 box
Created 250 atoms

# ----------------- Define Interatomic Potential ---------------------

pair_style hybrid/overlay eam/alloy eam/fs
pair_coeff * * eam/alloy ../potentials/FeCr_d.eam.alloy Fe
pair_coeff * * eam/fs ../potentials/FeCr_s.eam.fs Fe

neighbor 0.3 bin
neigh_modify  delay 1

# ------------------- Calculated properties setting---------------------------

compute peratom all pe/atom
compute eatoms all reduce sum c_peratom
compute csym all centro/atom bcc

# ------------------- Thermal properties output ------------------------------

timestep        0.001
thermo 10
thermo_style custom step pe c_eatoms
dump 1 all custom 200 dump.bcc.Fe id type xs ys zs c_peratom

# ------------------- Minimize the total energy ------------------------------

min_style  cg
minimize   1.0e-20 1.0e-20 5000 5000
WARNING: Resetting reneighboring criteria during minimization (../min.cpp:173)
Memory usage per processor = 4.47457 Mbytes
Step PotEng eatoms 
       0   -1030.1892   -1030.1892 
       1   -1030.1892   -1030.1892 
Loop time of 0.00457382 on 1 procs (1 MPI x 1 OpenMP) for 1 steps with 250 atoms

Minimization stats:
  Stopping criterion = linesearch alpha is zero
  Energy initial, next-to-last, final = 
        -1030.18917695     -1030.18917695     -1030.18917695
  Force two-norm initial, final = 2.49016e-15 2.49016e-15
  Force max component initial, final = 3.88578e-16 3.88578e-16
  Final line search alpha, max atom move = 0.5 1.94289e-16
  Iterations, force evaluations = 1 2

Pair  time (%) = 0.00412202 (90.122)
Neigh time (%) = 0 (0)
Comm  time (%) = 3.71933e-05 (0.813178)
Outpt time (%) = 0 (0)
Other time (%) = 0.00041461 (9.06485)

Nlocal:    250 ave 250 max 250 min
Histogram: 1 0 0 0 0 0 0 0 0 0
Nghost:    991 ave 991 max 991 min
Histogram: 1 0 0 0 0 0 0 0 0 0
Neighs:    7250 ave 7250 max 7250 min
Histogram: 1 0 0 0 0 0 0 0 0 0
FullNghs:  0 ave 0 max 0 min
Histogram: 1 0 0 0 0 0 0 0 0 0

Total # of neighbors = 7250
Ave neighs/atom = 29
Neighbor list builds = 0
Dangerous builds = 0
variable   E equal "c_eatoms"
variable   N equal count(all)
variable   E_cohesive equal ${E}/${N}
variable   E_cohesive equal -1030.1891769531207501/${N}
variable   E_cohesive equal -1030.1891769531207501/250
print "${a}	${E_cohesive}" append lat_param.dat
2.8399999999999998579	-4.120756707812483377

# ------------------- Loop:   ----------------------------------

clear
WARNING: OMP_NUM_THREADS environment is not set. (../comm.cpp:100)
  using 1 OpenMP thread(s) per MPI task
next            k
jump            input_a0.Fe
# This input file is used to calculate the lattice constant of bcc Fe
# E. Mansouri
# KTH, Nuclear Engineering
# ebrman@kth.se

# ------------------ Initial parameter defenition --------------------

units           metal
boundary        p p p
atom_style      atomic

# ----------------- variable setting -----------------------------------

variable        k loop 60               # define the number of loop
variable        a equal 2.75+0.005*$k   # define the various lattice constant “a”
variable        a equal 2.75+0.005*19   

# ----------------- Bcc Fe supercell setting ---------------------------

lattice         bcc $a
lattice         bcc 2.8450000000000001954
Lattice spacing in x,y,z = 2.845 2.845 2.845
region          box block 0 5 0 5 0 5
create_box      1 box
Created orthogonal box = (0 0 0) to (14.225 14.225 14.225)
  1 by 1 by 1 MPI processor grid
create_atoms    1 box
Created 250 atoms

# ----------------- Define Interatomic Potential ---------------------

pair_style hybrid/overlay eam/alloy eam/fs
pair_coeff * * eam/alloy ../potentials/FeCr_d.eam.alloy Fe
pair_coeff * * eam/fs ../potentials/FeCr_s.eam.fs Fe

neighbor 0.3 bin
neigh_modify  delay 1

# ------------------- Calculated properties setting---------------------------

compute peratom all pe/atom
compute eatoms all reduce sum c_peratom
compute csym all centro/atom bcc

# ------------------- Thermal properties output ------------------------------

timestep        0.001
thermo 10
thermo_style custom step pe c_eatoms
dump 1 all custom 200 dump.bcc.Fe id type xs ys zs c_peratom

# ------------------- Minimize the total energy ------------------------------

min_style  cg
minimize   1.0e-20 1.0e-20 5000 5000
WARNING: Resetting reneighboring criteria during minimization (../min.cpp:173)
Memory usage per processor = 4.47457 Mbytes
Step PotEng eatoms 
       0   -1030.4185   -1030.4185 
       1   -1030.4185   -1030.4185 
Loop time of 0.00462198 on 1 procs (1 MPI x 1 OpenMP) for 1 steps with 250 atoms

Minimization stats:
  Stopping criterion = linesearch alpha is zero
  Energy initial, next-to-last, final = 
         -1030.4184693      -1030.4184693      -1030.4184693
  Force two-norm initial, final = 1.50391e-13 1.50391e-13
  Force max component initial, final = 1.131e-14 1.131e-14
  Final line search alpha, max atom move = 0.5 5.65498e-15
  Iterations, force evaluations = 1 2

Pair  time (%) = 0.004179 (90.4158)
Neigh time (%) = 0 (0)
Comm  time (%) = 2.14577e-05 (0.464253)
Outpt time (%) = 0 (0)
Other time (%) = 0.000421524 (9.11998)

Nlocal:    250 ave 250 max 250 min
Histogram: 1 0 0 0 0 0 0 0 0 0
Nghost:    991 ave 991 max 991 min
Histogram: 1 0 0 0 0 0 0 0 0 0
Neighs:    7250 ave 7250 max 7250 min
Histogram: 1 0 0 0 0 0 0 0 0 0
FullNghs:  0 ave 0 max 0 min
Histogram: 1 0 0 0 0 0 0 0 0 0

Total # of neighbors = 7250
Ave neighs/atom = 29
Neighbor list builds = 0
Dangerous builds = 0
variable   E equal "c_eatoms"
variable   N equal count(all)
variable   E_cohesive equal ${E}/${N}
variable   E_cohesive equal -1030.4184692984390495/${N}
variable   E_cohesive equal -1030.4184692984390495/250
print "${a}	${E_cohesive}" append lat_param.dat
2.8450000000000001954	-4.1216738771937562191

# ------------------- Loop:   ----------------------------------

clear
WARNING: OMP_NUM_THREADS environment is not set. (../comm.cpp:100)
  using 1 OpenMP thread(s) per MPI task
next            k
jump            input_a0.Fe
# This input file is used to calculate the lattice constant of bcc Fe
# E. Mansouri
# KTH, Nuclear Engineering
# ebrman@kth.se

# ------------------ Initial parameter defenition --------------------

units           metal
boundary        p p p
atom_style      atomic

# ----------------- variable setting -----------------------------------

variable        k loop 60               # define the number of loop
variable        a equal 2.75+0.005*$k   # define the various lattice constant “a”
variable        a equal 2.75+0.005*20   

# ----------------- Bcc Fe supercell setting ---------------------------

lattice         bcc $a
lattice         bcc 2.8500000000000000888
Lattice spacing in x,y,z = 2.85 2.85 2.85
region          box block 0 5 0 5 0 5
create_box      1 box
Created orthogonal box = (0 0 0) to (14.25 14.25 14.25)
  1 by 1 by 1 MPI processor grid
create_atoms    1 box
Created 250 atoms

# ----------------- Define Interatomic Potential ---------------------

pair_style hybrid/overlay eam/alloy eam/fs
pair_coeff * * eam/alloy ../potentials/FeCr_d.eam.alloy Fe
pair_coeff * * eam/fs ../potentials/FeCr_s.eam.fs Fe

neighbor 0.3 bin
neigh_modify  delay 1

# ------------------- Calculated properties setting---------------------------

compute peratom all pe/atom
compute eatoms all reduce sum c_peratom
compute csym all centro/atom bcc

# ------------------- Thermal properties output ------------------------------

timestep        0.001
thermo 10
thermo_style custom step pe c_eatoms
dump 1 all custom 200 dump.bcc.Fe id type xs ys zs c_peratom

# ------------------- Minimize the total energy ------------------------------

min_style  cg
minimize   1.0e-20 1.0e-20 5000 5000
WARNING: Resetting reneighboring criteria during minimization (../min.cpp:173)
Memory usage per processor = 4.47457 Mbytes
Step PotEng eatoms 
       0   -1030.5582   -1030.5582 
       1   -1030.5582   -1030.5582 
Loop time of 0.00461006 on 1 procs (1 MPI x 1 OpenMP) for 1 steps with 250 atoms

Minimization stats:
  Stopping criterion = linesearch alpha is zero
  Energy initial, next-to-last, final = 
        -1030.55820078     -1030.55820078     -1030.55820078
  Force two-norm initial, final = 1.43794e-13 1.43794e-13
  Force max component initial, final = 1.15116e-14 1.15116e-14
  Final line search alpha, max atom move = 0.5 5.75581e-15
  Iterations, force evaluations = 1 2

Pair  time (%) = 0.00415277 (90.0807)
Neigh time (%) = 0 (0)
Comm  time (%) = 2.28882e-05 (0.496483)
Outpt time (%) = 0 (0)
Other time (%) = 0.000434399 (9.42284)

Nlocal:    250 ave 250 max 250 min
Histogram: 1 0 0 0 0 0 0 0 0 0
Nghost:    991 ave 991 max 991 min
Histogram: 1 0 0 0 0 0 0 0 0 0
Neighs:    7250 ave 7250 max 7250 min
Histogram: 1 0 0 0 0 0 0 0 0 0
FullNghs:  0 ave 0 max 0 min
Histogram: 1 0 0 0 0 0 0 0 0 0

Total # of neighbors = 7250
Ave neighs/atom = 29
Neighbor list builds = 0
Dangerous builds = 0
variable   E equal "c_eatoms"
variable   N equal count(all)
variable   E_cohesive equal ${E}/${N}
variable   E_cohesive equal -1030.5582007807747686/${N}
variable   E_cohesive equal -1030.5582007807747686/250
print "${a}	${E_cohesive}" append lat_param.dat
2.8500000000000000888	-4.122232803123099032

# ------------------- Loop:   ----------------------------------

clear
WARNING: OMP_NUM_THREADS environment is not set. (../comm.cpp:100)
  using 1 OpenMP thread(s) per MPI task
next            k
jump            input_a0.Fe
# This input file is used to calculate the lattice constant of bcc Fe
# E. Mansouri
# KTH, Nuclear Engineering
# ebrman@kth.se

# ------------------ Initial parameter defenition --------------------

units           metal
boundary        p p p
atom_style      atomic

# ----------------- variable setting -----------------------------------

variable        k loop 60               # define the number of loop
variable        a equal 2.75+0.005*$k   # define the various lattice constant “a”
variable        a equal 2.75+0.005*21   

# ----------------- Bcc Fe supercell setting ---------------------------

lattice         bcc $a
lattice         bcc 2.8549999999999999822
Lattice spacing in x,y,z = 2.855 2.855 2.855
region          box block 0 5 0 5 0 5
create_box      1 box
Created orthogonal box = (0 0 0) to (14.275 14.275 14.275)
  1 by 1 by 1 MPI processor grid
create_atoms    1 box
Created 250 atoms

# ----------------- Define Interatomic Potential ---------------------

pair_style hybrid/overlay eam/alloy eam/fs
pair_coeff * * eam/alloy ../potentials/FeCr_d.eam.alloy Fe
pair_coeff * * eam/fs ../potentials/FeCr_s.eam.fs Fe

neighbor 0.3 bin
neigh_modify  delay 1

# ------------------- Calculated properties setting---------------------------

compute peratom all pe/atom
compute eatoms all reduce sum c_peratom
compute csym all centro/atom bcc

# ------------------- Thermal properties output ------------------------------

timestep        0.001
thermo 10
thermo_style custom step pe c_eatoms
dump 1 all custom 200 dump.bcc.Fe id type xs ys zs c_peratom

# ------------------- Minimize the total energy ------------------------------

min_style  cg
minimize   1.0e-20 1.0e-20 5000 5000
WARNING: Resetting reneighboring criteria during minimization (../min.cpp:173)
Memory usage per processor = 4.47457 Mbytes
Step PotEng eatoms 
       0   -1030.6086   -1030.6086 
       1   -1030.6086   -1030.6086 
Loop time of 0.00457978 on 1 procs (1 MPI x 1 OpenMP) for 1 steps with 250 atoms

Minimization stats:
  Stopping criterion = linesearch alpha is zero
  Energy initial, next-to-last, final = 
        -1030.60858736     -1030.60858736     -1030.60858736
  Force two-norm initial, final = 4.25076e-14 4.25076e-14
  Force max component initial, final = 5.70139e-15 5.70139e-15
  Final line search alpha, max atom move = 0.5 2.85069e-15
  Iterations, force evaluations = 1 2

Pair  time (%) = 0.00413609 (90.3118)
Neigh time (%) = 0 (0)
Comm  time (%) = 2.24113e-05 (0.489354)
Outpt time (%) = 0 (0)
Other time (%) = 0.000421286 (9.19881)

Nlocal:    250 ave 250 max 250 min
Histogram: 1 0 0 0 0 0 0 0 0 0
Nghost:    991 ave 991 max 991 min
Histogram: 1 0 0 0 0 0 0 0 0 0
Neighs:    7250 ave 7250 max 7250 min
Histogram: 1 0 0 0 0 0 0 0 0 0
FullNghs:  0 ave 0 max 0 min
Histogram: 1 0 0 0 0 0 0 0 0 0

Total # of neighbors = 7250
Ave neighs/atom = 29
Neighbor list builds = 0
Dangerous builds = 0
variable   E equal "c_eatoms"
variable   N equal count(all)
variable   E_cohesive equal ${E}/${N}
variable   E_cohesive equal -1030.6085873596662168/${N}
variable   E_cohesive equal -1030.6085873596662168/250
print "${a}	${E_cohesive}" append lat_param.dat
2.8549999999999999822	-4.1224343494386648246

# ------------------- Loop:   ----------------------------------

clear
WARNING: OMP_NUM_THREADS environment is not set. (../comm.cpp:100)
  using 1 OpenMP thread(s) per MPI task
next            k
jump            input_a0.Fe
# This input file is used to calculate the lattice constant of bcc Fe
# E. Mansouri
# KTH, Nuclear Engineering
# ebrman@kth.se

# ------------------ Initial parameter defenition --------------------

units           metal
boundary        p p p
atom_style      atomic

# ----------------- variable setting -----------------------------------

variable        k loop 60               # define the number of loop
variable        a equal 2.75+0.005*$k   # define the various lattice constant “a”
variable        a equal 2.75+0.005*22   

# ----------------- Bcc Fe supercell setting ---------------------------

lattice         bcc $a
lattice         bcc 2.8599999999999998757
Lattice spacing in x,y,z = 2.86 2.86 2.86
region          box block 0 5 0 5 0 5
create_box      1 box
Created orthogonal box = (0 0 0) to (14.3 14.3 14.3)
  1 by 1 by 1 MPI processor grid
create_atoms    1 box
Created 250 atoms

# ----------------- Define Interatomic Potential ---------------------

pair_style hybrid/overlay eam/alloy eam/fs
pair_coeff * * eam/alloy ../potentials/FeCr_d.eam.alloy Fe
pair_coeff * * eam/fs ../potentials/FeCr_s.eam.fs Fe

neighbor 0.3 bin
neigh_modify  delay 1

# ------------------- Calculated properties setting---------------------------

compute peratom all pe/atom
compute eatoms all reduce sum c_peratom
compute csym all centro/atom bcc

# ------------------- Thermal properties output ------------------------------

timestep        0.001
thermo 10
thermo_style custom step pe c_eatoms
dump 1 all custom 200 dump.bcc.Fe id type xs ys zs c_peratom

# ------------------- Minimize the total energy ------------------------------

min_style  cg
minimize   1.0e-20 1.0e-20 5000 5000
WARNING: Resetting reneighboring criteria during minimization (../min.cpp:173)
Memory usage per processor = 4.47457 Mbytes
Step PotEng eatoms 
       0   -1030.5698   -1030.5698 
       1   -1030.5698   -1030.5698 
Loop time of 0.00480509 on 1 procs (1 MPI x 1 OpenMP) for 1 steps with 250 atoms

Minimization stats:
  Stopping criterion = linesearch alpha is zero
  Energy initial, next-to-last, final = 
        -1030.56984504     -1030.56984504     -1030.56984504
  Force two-norm initial, final = 7.56218e-14 7.56218e-14
  Force max component initial, final = 8.22346e-15 8.22346e-15
  Final line search alpha, max atom move = 0.5 4.11173e-15
  Iterations, force evaluations = 1 2

Pair  time (%) = 0.004287 (89.218)
Neigh time (%) = 0 (0)
Comm  time (%) = 2.26498e-05 (0.47137)
Outpt time (%) = 0 (0)
Other time (%) = 0.000495434 (10.3106)

Nlocal:    250 ave 250 max 250 min
Histogram: 1 0 0 0 0 0 0 0 0 0
Nghost:    991 ave 991 max 991 min
Histogram: 1 0 0 0 0 0 0 0 0 0
Neighs:    7250 ave 7250 max 7250 min
Histogram: 1 0 0 0 0 0 0 0 0 0
FullNghs:  0 ave 0 max 0 min
Histogram: 1 0 0 0 0 0 0 0 0 0

Total # of neighbors = 7250
Ave neighs/atom = 29
Neighbor list builds = 0
Dangerous builds = 0
variable   E equal "c_eatoms"
variable   N equal count(all)
variable   E_cohesive equal ${E}/${N}
variable   E_cohesive equal -1030.5698450398510886/${N}
variable   E_cohesive equal -1030.5698450398510886/250
print "${a}	${E_cohesive}" append lat_param.dat
2.8599999999999998757	-4.1222793801594042051

# ------------------- Loop:   ----------------------------------

clear
WARNING: OMP_NUM_THREADS environment is not set. (../comm.cpp:100)
  using 1 OpenMP thread(s) per MPI task
next            k
jump            input_a0.Fe
# This input file is used to calculate the lattice constant of bcc Fe
# E. Mansouri
# KTH, Nuclear Engineering
# ebrman@kth.se

# ------------------ Initial parameter defenition --------------------

units           metal
boundary        p p p
atom_style      atomic

# ----------------- variable setting -----------------------------------

variable        k loop 60               # define the number of loop
variable        a equal 2.75+0.005*$k   # define the various lattice constant “a”
variable        a equal 2.75+0.005*23   

# ----------------- Bcc Fe supercell setting ---------------------------

lattice         bcc $a
lattice         bcc 2.8650000000000002132
Lattice spacing in x,y,z = 2.865 2.865 2.865
region          box block 0 5 0 5 0 5
create_box      1 box
Created orthogonal box = (0 0 0) to (14.325 14.325 14.325)
  1 by 1 by 1 MPI processor grid
create_atoms    1 box
Created 250 atoms

# ----------------- Define Interatomic Potential ---------------------

pair_style hybrid/overlay eam/alloy eam/fs
pair_coeff * * eam/alloy ../potentials/FeCr_d.eam.alloy Fe
pair_coeff * * eam/fs ../potentials/FeCr_s.eam.fs Fe

neighbor 0.3 bin
neigh_modify  delay 1

# ------------------- Calculated properties setting---------------------------

compute peratom all pe/atom
compute eatoms all reduce sum c_peratom
compute csym all centro/atom bcc

# ------------------- Thermal properties output ------------------------------

timestep        0.001
thermo 10
thermo_style custom step pe c_eatoms
dump 1 all custom 200 dump.bcc.Fe id type xs ys zs c_peratom

# ------------------- Minimize the total energy ------------------------------

min_style  cg
minimize   1.0e-20 1.0e-20 5000 5000
WARNING: Resetting reneighboring criteria during minimization (../min.cpp:173)
Memory usage per processor = 4.47457 Mbytes
Step PotEng eatoms 
       0   -1030.4422   -1030.4422 
       1   -1030.4422   -1030.4422 
Loop time of 0.00842595 on 1 procs (1 MPI x 1 OpenMP) for 1 steps with 250 atoms

Minimization stats:
  Stopping criterion = linesearch alpha is zero
  Energy initial, next-to-last, final = 
        -1030.44218977     -1030.44218977     -1030.44218977
  Force two-norm initial, final = 1.52111e-13 1.52111e-13
  Force max component initial, final = 1.52933e-14 1.52933e-14
  Final line search alpha, max atom move = 0.5 7.64666e-15
  Iterations, force evaluations = 1 2

Pair  time (%) = 0.00793409 (94.1626)
Neigh time (%) = 0 (0)
Comm  time (%) = 4.57764e-05 (0.543278)
Outpt time (%) = 0 (0)
Other time (%) = 0.000446081 (5.29413)

Nlocal:    250 ave 250 max 250 min
Histogram: 1 0 0 0 0 0 0 0 0 0
Nghost:    991 ave 991 max 991 min
Histogram: 1 0 0 0 0 0 0 0 0 0
Neighs:    7250 ave 7250 max 7250 min
Histogram: 1 0 0 0 0 0 0 0 0 0
FullNghs:  0 ave 0 max 0 min
Histogram: 1 0 0 0 0 0 0 0 0 0

Total # of neighbors = 7250
Ave neighs/atom = 29
Neighbor list builds = 0
Dangerous builds = 0
variable   E equal "c_eatoms"
variable   N equal count(all)
variable   E_cohesive equal ${E}/${N}
variable   E_cohesive equal -1030.4421897692445782/${N}
variable   E_cohesive equal -1030.4421897692445782/250
print "${a}	${E_cohesive}" append lat_param.dat
2.8650000000000002132	-4.1217687590769784833

# ------------------- Loop:   ----------------------------------

clear
WARNING: OMP_NUM_THREADS environment is not set. (../comm.cpp:100)
  using 1 OpenMP thread(s) per MPI task
next            k
jump            input_a0.Fe
# This input file is used to calculate the lattice constant of bcc Fe
# E. Mansouri
# KTH, Nuclear Engineering
# ebrman@kth.se

# ------------------ Initial parameter defenition --------------------

units           metal
boundary        p p p
atom_style      atomic

# ----------------- variable setting -----------------------------------

variable        k loop 60               # define the number of loop
variable        a equal 2.75+0.005*$k   # define the various lattice constant “a”
variable        a equal 2.75+0.005*24   

# ----------------- Bcc Fe supercell setting ---------------------------

lattice         bcc $a
lattice         bcc 2.8700000000000001066
Lattice spacing in x,y,z = 2.87 2.87 2.87
region          box block 0 5 0 5 0 5
create_box      1 box
Created orthogonal box = (0 0 0) to (14.35 14.35 14.35)
  1 by 1 by 1 MPI processor grid
create_atoms    1 box
Created 250 atoms

[...]

lattice         bcc $a
lattice         bcc 3.0249999999999999112
Lattice spacing in x,y,z = 3.025 3.025 3.025
region          box block 0 5 0 5 0 5
create_box      1 box
Created orthogonal box = (0 0 0) to (15.125 15.125 15.125)
  1 by 1 by 1 MPI processor grid
create_atoms    1 box
Created 250 atoms

# ----------------- Define Interatomic Potential ---------------------

pair_style hybrid/overlay eam/alloy eam/fs
pair_coeff * * eam/alloy ../potentials/FeCr_d.eam.alloy Fe
pair_coeff * * eam/fs ../potentials/FeCr_s.eam.fs Fe

neighbor 0.3 bin
neigh_modify  delay 1

# ------------------- Calculated properties setting---------------------------

compute peratom all pe/atom
compute eatoms all reduce sum c_peratom
compute csym all centro/atom bcc

# ------------------- Thermal properties output ------------------------------

timestep        0.001
thermo 10
thermo_style custom step pe c_eatoms
dump 1 all custom 200 dump.bcc.Fe id type xs ys zs c_peratom

# ------------------- Minimize the total energy ------------------------------

min_style  cg
minimize   1.0e-20 1.0e-20 5000 5000
WARNING: Resetting reneighboring criteria during minimization (../min.cpp:173)
Memory usage per processor = 4.47457 Mbytes
Step PotEng eatoms 
       0   -988.49297   -988.49297 
       1   -988.49297   -988.49297 
Loop time of 0.0045979 on 1 procs (1 MPI x 1 OpenMP) for 1 steps with 250 atoms

Minimization stats:
  Stopping criterion = linesearch alpha is zero
  Energy initial, next-to-last, final = 
        -988.492967527     -988.492967527     -988.492967527
  Force two-norm initial, final = 4.98004e-14 4.98004e-14
  Force max component initial, final = 3.88166e-15 3.88166e-15
  Final line search alpha, max atom move = 0.5 1.94083e-15
  Iterations, force evaluations = 1 2

Pair  time (%) = 0.00414991 (90.2567)
Neigh time (%) = 0 (0)
Comm  time (%) = 2.14577e-05 (0.466684)
Outpt time (%) = 0 (0)
Other time (%) = 0.000426531 (9.27664)

Nlocal:    250 ave 250 max 250 min
Histogram: 1 0 0 0 0 0 0 0 0 0
Nghost:    991 ave 991 max 991 min
Histogram: 1 0 0 0 0 0 0 0 0 0
Neighs:    7250 ave 7250 max 7250 min
Histogram: 1 0 0 0 0 0 0 0 0 0
FullNghs:  0 ave 0 max 0 min
Histogram: 1 0 0 0 0 0 0 0 0 0

Total # of neighbors = 7250
Ave neighs/atom = 29
Neighbor list builds = 0
Dangerous builds = 0
variable   E equal "c_eatoms"
variable   N equal count(all)
variable   E_cohesive equal ${E}/${N}
variable   E_cohesive equal -988.49296752741349792/${N}
variable   E_cohesive equal -988.49296752741349792/250
print "${a}	${E_cohesive}" append lat_param.dat
3.0249999999999999112	-3.9539718701096537856

# ------------------- Loop:   ----------------------------------

clear
WARNING: OMP_NUM_THREADS environment is not set. (../comm.cpp:100)
  using 1 OpenMP thread(s) per MPI task
next            k
jump            input_a0.Fe
# This input file is used to calculate the lattice constant of bcc Fe
# E. Mansouri
# KTH, Nuclear Engineering
# ebrman@kth.se

# ------------------ Initial parameter defenition --------------------

units           metal
boundary        p p p
atom_style      atomic

# ----------------- variable setting -----------------------------------

variable        k loop 60               # define the number of loop
variable        a equal 2.75+0.005*$k   # define the various lattice constant “a”
variable        a equal 2.75+0.005*56   

# ----------------- Bcc Fe supercell setting ---------------------------

lattice         bcc $a
lattice         bcc 3.0300000000000002487
Lattice spacing in x,y,z = 3.03 3.03 3.03
region          box block 0 5 0 5 0 5
create_box      1 box
Created orthogonal box = (0 0 0) to (15.15 15.15 15.15)
  1 by 1 by 1 MPI processor grid
create_atoms    1 box
Created 250 atoms

# ----------------- Define Interatomic Potential ---------------------

pair_style hybrid/overlay eam/alloy eam/fs
pair_coeff * * eam/alloy ../potentials/FeCr_d.eam.alloy Fe
pair_coeff * * eam/fs ../potentials/FeCr_s.eam.fs Fe

neighbor 0.3 bin
neigh_modify  delay 1

# ------------------- Calculated properties setting---------------------------

compute peratom all pe/atom
compute eatoms all reduce sum c_peratom
compute csym all centro/atom bcc

# ------------------- Thermal properties output ------------------------------

timestep        0.001
thermo 10
thermo_style custom step pe c_eatoms
dump 1 all custom 200 dump.bcc.Fe id type xs ys zs c_peratom

# ------------------- Minimize the total energy ------------------------------

min_style  cg
minimize   1.0e-20 1.0e-20 5000 5000
WARNING: Resetting reneighboring criteria during minimization (../min.cpp:173)
Memory usage per processor = 4.47457 Mbytes
Step PotEng eatoms 
       0   -986.38212   -986.38212 
       1   -986.38212   -986.38212 
Loop time of 0.00494194 on 1 procs (1 MPI x 1 OpenMP) for 1 steps with 250 atoms

Minimization stats:
  Stopping criterion = linesearch alpha is zero
  Energy initial, next-to-last, final = 
        -986.382121706     -986.382121706     -986.382121706
  Force two-norm initial, final = 5.09353e-14 5.09353e-14
  Force max component initial, final = 3.99831e-15 3.99831e-15
  Final line search alpha, max atom move = 0.5 1.99916e-15
  Iterations, force evaluations = 1 2

Pair  time (%) = 0.00449991 (91.0556)
Neigh time (%) = 0 (0)
Comm  time (%) = 2.40803e-05 (0.487264)
Outpt time (%) = 0 (0)
Other time (%) = 0.000417948 (8.45716)

Nlocal:    250 ave 250 max 250 min
Histogram: 1 0 0 0 0 0 0 0 0 0
Nghost:    991 ave 991 max 991 min
Histogram: 1 0 0 0 0 0 0 0 0 0
Neighs:    7250 ave 7250 max 7250 min
Histogram: 1 0 0 0 0 0 0 0 0 0
FullNghs:  0 ave 0 max 0 min
Histogram: 1 0 0 0 0 0 0 0 0 0

Total # of neighbors = 7250
Ave neighs/atom = 29
Neighbor list builds = 0
Dangerous builds = 0
variable   E equal "c_eatoms"
variable   N equal count(all)
variable   E_cohesive equal ${E}/${N}
variable   E_cohesive equal -986.38212170592271377/${N}
variable   E_cohesive equal -986.38212170592271377/250
print "${a}	${E_cohesive}" append lat_param.dat
3.0300000000000002487	-3.9455284868236910611

# ------------------- Loop:   ----------------------------------

clear
WARNING: OMP_NUM_THREADS environment is not set. (../comm.cpp:100)
  using 1 OpenMP thread(s) per MPI task
next            k
jump            input_a0.Fe
# This input file is used to calculate the lattice constant of bcc Fe
# E. Mansouri
# KTH, Nuclear Engineering
# ebrman@kth.se

# ------------------ Initial parameter defenition --------------------

units           metal
boundary        p p p
atom_style      atomic

# ----------------- variable setting -----------------------------------

variable        k loop 60               # define the number of loop
variable        a equal 2.75+0.005*$k   # define the various lattice constant “a”
variable        a equal 2.75+0.005*57   

# ----------------- Bcc Fe supercell setting ---------------------------

lattice         bcc $a
lattice         bcc 3.0350000000000001421
Lattice spacing in x,y,z = 3.035 3.035 3.035
region          box block 0 5 0 5 0 5
create_box      1 box
Created orthogonal box = (0 0 0) to (15.175 15.175 15.175)
  1 by 1 by 1 MPI processor grid
create_atoms    1 box
Created 250 atoms

# ----------------- Define Interatomic Potential ---------------------

pair_style hybrid/overlay eam/alloy eam/fs
pair_coeff * * eam/alloy ../potentials/FeCr_d.eam.alloy Fe
pair_coeff * * eam/fs ../potentials/FeCr_s.eam.fs Fe

neighbor 0.3 bin
neigh_modify  delay 1

# ------------------- Calculated properties setting---------------------------

compute peratom all pe/atom
compute eatoms all reduce sum c_peratom
compute csym all centro/atom bcc

# ------------------- Thermal properties output ------------------------------

timestep        0.001
thermo 10
thermo_style custom step pe c_eatoms
dump 1 all custom 200 dump.bcc.Fe id type xs ys zs c_peratom

# ------------------- Minimize the total energy ------------------------------

min_style  cg
minimize   1.0e-20 1.0e-20 5000 5000
WARNING: Resetting reneighboring criteria during minimization (../min.cpp:173)
Memory usage per processor = 4.47457 Mbytes
Step PotEng eatoms 
       0   -984.23715   -984.23715 
       1   -984.23715   -984.23715 
Loop time of 0.00459003 on 1 procs (1 MPI x 1 OpenMP) for 1 steps with 250 atoms

Minimization stats:
  Stopping criterion = linesearch alpha is zero
  Energy initial, next-to-last, final = 
        -984.237147674     -984.237147674     -984.237147674
  Force two-norm initial, final = 1.31767e-14 1.31767e-14
  Force max component initial, final = 1.51962e-15 1.51962e-15
  Final line search alpha, max atom move = 0.5 7.59809e-16
  Iterations, force evaluations = 1 2

Pair  time (%) = 0.00414371 (90.2763)
Neigh time (%) = 0 (0)
Comm  time (%) = 2.14577e-05 (0.467484)
Outpt time (%) = 0 (0)
Other time (%) = 0.000424862 (9.25618)

Nlocal:    250 ave 250 max 250 min
Histogram: 1 0 0 0 0 0 0 0 0 0
Nghost:    991 ave 991 max 991 min
Histogram: 1 0 0 0 0 0 0 0 0 0
Neighs:    7250 ave 7250 max 7250 min
Histogram: 1 0 0 0 0 0 0 0 0 0
FullNghs:  0 ave 0 max 0 min
Histogram: 1 0 0 0 0 0 0 0 0 0

Total # of neighbors = 7250
Ave neighs/atom = 29
Neighbor list builds = 0
Dangerous builds = 0
variable   E equal "c_eatoms"
variable   N equal count(all)
variable   E_cohesive equal ${E}/${N}
variable   E_cohesive equal -984.23714767347405541/${N}
variable   E_cohesive equal -984.23714767347405541/250
print "${a}	${E_cohesive}" append lat_param.dat
3.0350000000000001421	-3.9369485906938961328

# ------------------- Loop:   ----------------------------------

clear
WARNING: OMP_NUM_THREADS environment is not set. (../comm.cpp:100)
  using 1 OpenMP thread(s) per MPI task
next            k
jump            input_a0.Fe
# This input file is used to calculate the lattice constant of bcc Fe
# E. Mansouri
# KTH, Nuclear Engineering
# ebrman@kth.se

# ------------------ Initial parameter defenition --------------------

units           metal
boundary        p p p
atom_style      atomic

# ----------------- variable setting -----------------------------------

variable        k loop 60               # define the number of loop
variable        a equal 2.75+0.005*$k   # define the various lattice constant “a”
variable        a equal 2.75+0.005*58   

# ----------------- Bcc Fe supercell setting ---------------------------

lattice         bcc $a
lattice         bcc 3.0400000000000000355
Lattice spacing in x,y,z = 3.04 3.04 3.04
region          box block 0 5 0 5 0 5
create_box      1 box
Created orthogonal box = (0 0 0) to (15.2 15.2 15.2)
  1 by 1 by 1 MPI processor grid
create_atoms    1 box
Created 250 atoms

# ----------------- Define Interatomic Potential ---------------------

pair_style hybrid/overlay eam/alloy eam/fs
pair_coeff * * eam/alloy ../potentials/FeCr_d.eam.alloy Fe
pair_coeff * * eam/fs ../potentials/FeCr_s.eam.fs Fe

neighbor 0.3 bin
neigh_modify  delay 1

# ------------------- Calculated properties setting---------------------------

compute peratom all pe/atom
compute eatoms all reduce sum c_peratom
compute csym all centro/atom bcc

# ------------------- Thermal properties output ------------------------------

timestep        0.001
thermo 10
thermo_style custom step pe c_eatoms
dump 1 all custom 200 dump.bcc.Fe id type xs ys zs c_peratom

# ------------------- Minimize the total energy ------------------------------

min_style  cg
minimize   1.0e-20 1.0e-20 5000 5000
WARNING: Resetting reneighboring criteria during minimization (../min.cpp:173)
Memory usage per processor = 4.47457 Mbytes
Step PotEng eatoms 
       0   -982.05815   -982.05815 
       1   -982.05815   -982.05815 
Loop time of 0.00478411 on 1 procs (1 MPI x 1 OpenMP) for 1 steps with 250 atoms

Minimization stats:
  Stopping criterion = linesearch alpha is zero
  Energy initial, next-to-last, final = 
         -982.05814577      -982.05814577      -982.05814577
  Force two-norm initial, final = 5.069e-14 5.069e-14
  Force max component initial, final = 3.63176e-15 3.63176e-15
  Final line search alpha, max atom move = 0.5 1.81588e-15
  Iterations, force evaluations = 1 2

Pair  time (%) = 0.00434279 (90.7754)
Neigh time (%) = 0 (0)
Comm  time (%) = 2.19345e-05 (0.458487)
Outpt time (%) = 0 (0)
Other time (%) = 0.000419378 (8.76607)

Nlocal:    250 ave 250 max 250 min
Histogram: 1 0 0 0 0 0 0 0 0 0
Nghost:    991 ave 991 max 991 min
Histogram: 1 0 0 0 0 0 0 0 0 0
Neighs:    7250 ave 7250 max 7250 min
Histogram: 1 0 0 0 0 0 0 0 0 0
FullNghs:  0 ave 0 max 0 min
Histogram: 1 0 0 0 0 0 0 0 0 0

Total # of neighbors = 7250
Ave neighs/atom = 29
Neighbor list builds = 0
Dangerous builds = 0
variable   E equal "c_eatoms"
variable   N equal count(all)
variable   E_cohesive equal ${E}/${N}
variable   E_cohesive equal -982.05814576999546262/${N}
variable   E_cohesive equal -982.05814576999546262/250
print "${a}	${E_cohesive}" append lat_param.dat
3.0400000000000000355	-3.928232583079982021

# ------------------- Loop:   ----------------------------------

clear
WARNING: OMP_NUM_THREADS environment is not set. (../comm.cpp:100)
  using 1 OpenMP thread(s) per MPI task
next            k
jump            input_a0.Fe
# This input file is used to calculate the lattice constant of bcc Fe
# E. Mansouri
# KTH, Nuclear Engineering
# ebrman@kth.se

# ------------------ Initial parameter defenition --------------------

units           metal
boundary        p p p
atom_style      atomic

# ----------------- variable setting -----------------------------------

variable        k loop 60               # define the number of loop
variable        a equal 2.75+0.005*$k   # define the various lattice constant “a”
variable        a equal 2.75+0.005*59   

# ----------------- Bcc Fe supercell setting ---------------------------

lattice         bcc $a
lattice         bcc 3.0449999999999999289
Lattice spacing in x,y,z = 3.045 3.045 3.045
region          box block 0 5 0 5 0 5
create_box      1 box
Created orthogonal box = (0 0 0) to (15.225 15.225 15.225)
  1 by 1 by 1 MPI processor grid
create_atoms    1 box
Created 250 atoms

# ----------------- Define Interatomic Potential ---------------------

pair_style hybrid/overlay eam/alloy eam/fs
pair_coeff * * eam/alloy ../potentials/FeCr_d.eam.alloy Fe
pair_coeff * * eam/fs ../potentials/FeCr_s.eam.fs Fe

neighbor 0.3 bin
neigh_modify  delay 1

# ------------------- Calculated properties setting---------------------------

compute peratom all pe/atom
compute eatoms all reduce sum c_peratom
compute csym all centro/atom bcc

# ------------------- Thermal properties output ------------------------------

timestep        0.001
thermo 10
thermo_style custom step pe c_eatoms
dump 1 all custom 200 dump.bcc.Fe id type xs ys zs c_peratom

# ------------------- Minimize the total energy ------------------------------

min_style  cg
minimize   1.0e-20 1.0e-20 5000 5000
WARNING: Resetting reneighboring criteria during minimization (../min.cpp:173)
Memory usage per processor = 4.47457 Mbytes
Step PotEng eatoms 
       0   -979.84522   -979.84522 
       1   -979.84522   -979.84522 
Loop time of 0.00466895 on 1 procs (1 MPI x 1 OpenMP) for 1 steps with 250 atoms

Minimization stats:
  Stopping criterion = linesearch alpha is zero
  Energy initial, next-to-last, final = 
        -979.845217644     -979.845217644     -979.845217644
  Force two-norm initial, final = 5.0472e-14 5.0472e-14
  Force max component initial, final = 4.7938e-15 4.7938e-15
  Final line search alpha, max atom move = 0.5 2.3969e-15
  Iterations, force evaluations = 1 2

Pair  time (%) = 0.00423002 (90.599)
Neigh time (%) = 0 (0)
Comm  time (%) = 2.31266e-05 (0.495328)
Outpt time (%) = 0 (0)
Other time (%) = 0.000415802 (8.90568)

Nlocal:    250 ave 250 max 250 min
Histogram: 1 0 0 0 0 0 0 0 0 0
Nghost:    991 ave 991 max 991 min
Histogram: 1 0 0 0 0 0 0 0 0 0
Neighs:    7250 ave 7250 max 7250 min
Histogram: 1 0 0 0 0 0 0 0 0 0
FullNghs:  0 ave 0 max 0 min
Histogram: 1 0 0 0 0 0 0 0 0 0

Total # of neighbors = 7250
Ave neighs/atom = 29
Neighbor list builds = 0
Dangerous builds = 0
variable   E equal "c_eatoms"
variable   N equal count(all)
variable   E_cohesive equal ${E}/${N}
variable   E_cohesive equal -979.8452176445450732/${N}
variable   E_cohesive equal -979.8452176445450732/250
print "${a}	${E_cohesive}" append lat_param.dat
3.0449999999999999289	-3.9193808705781800761

# ------------------- Loop:   ----------------------------------

clear
WARNING: OMP_NUM_THREADS environment is not set. (../comm.cpp:100)
  using 1 OpenMP thread(s) per MPI task
next            k
jump            input_a0.Fe
# This input file is used to calculate the lattice constant of bcc Fe
# E. Mansouri
# KTH, Nuclear Engineering
# ebrman@kth.se

# ------------------ Initial parameter defenition --------------------

units           metal
boundary        p p p
atom_style      atomic

# ----------------- variable setting -----------------------------------

variable        k loop 60               # define the number of loop
variable        a equal 2.75+0.005*$k   # define the various lattice constant “a”
variable        a equal 2.75+0.005*60   

# ----------------- Bcc Fe supercell setting ---------------------------

lattice         bcc $a
lattice         bcc 3.0499999999999998224
Lattice spacing in x,y,z = 3.05 3.05 3.05
region          box block 0 5 0 5 0 5
create_box      1 box
Created orthogonal box = (0 0 0) to (15.25 15.25 15.25)
  1 by 1 by 1 MPI processor grid
create_atoms    1 box
Created 250 atoms

# ----------------- Define Interatomic Potential ---------------------

pair_style hybrid/overlay eam/alloy eam/fs
pair_coeff * * eam/alloy ../potentials/FeCr_d.eam.alloy Fe
pair_coeff * * eam/fs ../potentials/FeCr_s.eam.fs Fe

neighbor 0.3 bin
neigh_modify  delay 1

# ------------------- Calculated properties setting---------------------------

compute peratom all pe/atom
compute eatoms all reduce sum c_peratom
compute csym all centro/atom bcc

# ------------------- Thermal properties output ------------------------------

timestep        0.001
thermo 10
thermo_style custom step pe c_eatoms
dump 1 all custom 200 dump.bcc.Fe id type xs ys zs c_peratom

# ------------------- Minimize the total energy ------------------------------

min_style  cg
minimize   1.0e-20 1.0e-20 5000 5000
WARNING: Resetting reneighboring criteria during minimization (../min.cpp:173)
Memory usage per processor = 4.47457 Mbytes
Step PotEng eatoms 
       0   -977.59847   -977.59847 
       1   -977.59847   -977.59847 
Loop time of 0.00467992 on 1 procs (1 MPI x 1 OpenMP) for 1 steps with 250 atoms

Minimization stats:
  Stopping criterion = linesearch alpha is zero
  Energy initial, next-to-last, final = 
        -977.598466249     -977.598466249     -977.598466249
  Force two-norm initial, final = 4.53586e-14 4.53586e-14
  Force max component initial, final = 3.8719e-15 3.8719e-15
  Final line search alpha, max atom move = 0.5 1.93595e-15
  Iterations, force evaluations = 1 2

Pair  time (%) = 0.00423813 (90.5599)
Neigh time (%) = 0 (0)
Comm  time (%) = 2.19345e-05 (0.468694)
Outpt time (%) = 0 (0)
Other time (%) = 0.000419855 (8.97142)

Nlocal:    250 ave 250 max 250 min
Histogram: 1 0 0 0 0 0 0 0 0 0
Nghost:    991 ave 991 max 991 min
Histogram: 1 0 0 0 0 0 0 0 0 0
Neighs:    7250 ave 7250 max 7250 min
Histogram: 1 0 0 0 0 0 0 0 0 0
FullNghs:  0 ave 0 max 0 min
Histogram: 1 0 0 0 0 0 0 0 0 0

Total # of neighbors = 7250
Ave neighs/atom = 29
Neighbor list builds = 0
Dangerous builds = 0
variable   E equal "c_eatoms"
variable   N equal count(all)
variable   E_cohesive equal ${E}/${N}
variable   E_cohesive equal -977.59846624924944081/${N}
variable   E_cohesive equal -977.59846624924944081/250
print "${a}	${E_cohesive}" append lat_param.dat
3.0499999999999998224	-3.9103938649969975927

# ------------------- Loop:   ----------------------------------

clear
WARNING: OMP_NUM_THREADS environment is not set. (../comm.cpp:100)
  using 1 OpenMP thread(s) per MPI task
next            k
jump            input_a0.Fe
