ITEM: TIMESTEP
0
ITEM: NUMBER OF ATOMS
1999
ITEM: BOX BOUNDS pp pp pp
0 28.55
0 28.55
0 28.55
ITEM: ATOMS id type xs ys zs c_csym c_eng 
2 1 0.05 0.05 0.05 6.11327 -4.00688 
3 1 0.1 0 0 3.19489e-29 -3.99995 
4 1 0.15 0.05 0.05 0 -4.1218 
5 1 0.2 0 0 3.19489e-29 -4.12243 
6 1 0.25 0.05 0.05 1.26218e-29 -4.12243 
7 1 0.3 0 0 3.19489e-29 -4.12243 
8 1 0.35 0.05 0.05 0 -4.12243 
9 1 0.4 0 0 3.19489e-29 -4.12243 
10 1 0.45 0.05 0.05 0 -4.12243 
11 1 0.5 0 0 3.19489e-29 -4.12243 
12 1 0.55 0.05 0.05 0 -4.12243 
13 1 0.6 0 0 2.33897e-28 -4.12243 
14 1 0.65 0.05 0.05 2.01948e-28 -4.12243 
15 1 0.7 0 0 3.19489e-29 -4.12243 
16 1 0.75 0.05 0.05 0 -4.12243 
17 1 0.8 0 0 3.19489e-29 -4.12243 
18 1 0.85 0.05 0.05 0 -4.1218 
19 1 0.9 0 0 3.19489e-29 -3.99995 
20 1 0.95 0.05 0.05 6.11327 -4.00688 
21 1 0 0.1 0 3.19489e-29 -3.99995 
22 1 0.05 0.15 0.05 0 -4.1218 
23 1 0.1 0.1 0 1.59744e-29 -4.1091 
24 1 0.15 0.15 0.05 0 -4.12243 
25 1 0.2 0.1 0 1.59744e-29 -4.12243 
26 1 0.25 0.15 0.05 1.26218e-29 -4.12243 
27 1 0.3 0.1 0 1.59744e-29 -4.12243 
28 1 0.35 0.15 0.05 0 -4.12243 
29 1 0.4 0.1 0 1.59744e-29 -4.12243 
30 1 0.45 0.15 0.05 0 -4.12243 
31 1 0.5 0.1 0 1.59744e-29 -4.12243 
32 1 0.55 0.15 0.05 0 -4.12243 
33 1 0.6 0.1 0 2.17923e-28 -4.12243 
34 1 0.65 0.15 0.05 2.01948e-28 -4.12243 
35 1 0.7 0.1 0 1.59744e-29 -4.12243 
36 1 0.75 0.15 0.05 0 -4.12243 
37 1 0.8 0.1 0 1.59744e-29 -4.12243 
38 1 0.85 0.15 0.05 0 -4.12243 
39 1 0.9 0.1 0 1.59744e-29 -4.1091 
40 1 0.95 0.15 0.05 2.01948e-28 -4.1218 
41 1 0 0.2 0 3.19489e-29 -4.12243 
42 1 0.05 0.25 0.05 1.26218e-29 -4.12243 
43 1 0.1 0.2 0 1.59744e-29 -4.12243 
44 1 0.15 0.25 0.05 1.26218e-29 -4.12243 
45 1 0.2 0.2 0 1.59744e-29 -4.12243 
46 1 0.25 0.25 0.05 2.52435e-29 -4.12243 
47 1 0.3 0.2 0 1.59744e-29 -4.12243 
48 1 0.35 0.25 0.05 1.26218e-29 -4.12243 
49 1 0.4 0.2 0 1.59744e-29 -4.12243 
50 1 0.45 0.25 0.05 1.26218e-29 -4.12243 
51 1 0.5 0.2 0 1.59744e-29 -4.12243 
52 1 0.55 0.25 0.05 1.26218e-29 -4.12243 
53 1 0.6 0.2 0 2.17923e-28 -4.12243 
54 1 0.65 0.25 0.05 2.1457e-28 -4.12243 
55 1 0.7 0.2 0 1.59744e-29 -4.12243 
56 1 0.75 0.25 0.05 1.26218e-29 -4.12243 
57 1 0.8 0.2 0 1.59744e-29 -4.12243 
58 1 0.85 0.25 0.05 1.26218e-29 -4.12243 
59 1 0.9 0.2 0 1.59744e-29 -4.12243 
60 1 0.95 0.25 0.05 2.1457e-28 -4.12243 
61 1 0 0.3 0 3.19489e-29 -4.12243 
62 1 0.05 0.35 0.05 0 -4.12243 
63 1 0.1 0.3 0 1.59744e-29 -4.12243 
64 1 0.15 0.35 0.05 0 -4.12243 
65 1 0.2 0.3 0 1.59744e-29 -4.12243 
66 1 0.25 0.35 0.05 1.26218e-29 -4.12243 
67 1 0.3 0.3 0 1.59744e-29 -4.12243 
68 1 0.35 0.35 0.05 0 -4.12243 
69 1 0.4 0.3 0 1.59744e-29 -4.12243 
70 1 0.45 0.35 0.05 0 -4.12243 
71 1 0.5 0.3 0 1.59744e-29 -4.12243 
72 1 0.55 0.35 0.05 0 -4.12243 
73 1 0.6 0.3 0 2.17923e-28 -4.12243 
74 1 0.65 0.35 0.05 2.01948e-28 -4.12243 
75 1 0.7 0.3 0 1.59744e-29 -4.12243 
76 1 0.75 0.35 0.05 0 -4.12243 
77 1 0.8 0.3 0 1.59744e-29 -4.12243 
78 1 0.85 0.35 0.05 0 -4.12243 
79 1 0.9 0.3 0 1.59744e-29 -4.12243 
80 1 0.95 0.35 0.05 2.01948e-28 -4.12243 
81 1 0 0.4 0 3.19489e-29 -4.12243 
82 1 0.05 0.45 0.05 0 -4.12243 
83 1 0.1 0.4 0 1.59744e-29 -4.12243 
84 1 0.15 0.45 0.05 0 -4.12243 
85 1 0.2 0.4 0 1.59744e-29 -4.12243 
86 1 0.25 0.45 0.05 1.26218e-29 -4.12243 
87 1 0.3 0.4 0 1.59744e-29 -4.12243 
88 1 0.35 0.45 0.05 0 -4.12243 
89 1 0.4 0.4 0 1.59744e-29 -4.12243 
90 1 0.45 0.45 0.05 0 -4.12243 
91 1 0.5 0.4 0 1.59744e-29 -4.12243 
92 1 0.55 0.45 0.05 0 -4.12243 
93 1 0.6 0.4 0 2.17923e-28 -4.12243 
94 1 0.65 0.45 0.05 2.01948e-28 -4.12243 
95 1 0.7 0.4 0 1.59744e-29 -4.12243 
96 1 0.75 0.45 0.05 0 -4.12243 
97 1 0.8 0.4 0 1.59744e-29 -4.12243 
98 1 0.85 0.45 0.05 0 -4.12243 
99 1 0.9 0.4 0 1.59744e-29 -4.12243 
100 1 0.95 0.45 0.05 2.01948e-28 -4.12243 
101 1 0 0.5 0 3.19489e-29 -4.12243 
102 1 0.05 0.55 0.05 0 -4.12243 
103 1 0.1 0.5 0 1.59744e-29 -4.12243 
104 1 0.15 0.55 0.05 0 -4.12243 
105 1 0.2 0.5 0 1.59744e-29 -4.12243 
106 1 0.25 0.55 0.05 1.26218e-29 -4.12243 
107 1 0.3 0.5 0 1.59744e-29 -4.12243 
108 1 0.35 0.55 0.05 0 -4.12243 
109 1 0.4 0.5 0 1.59744e-29 -4.12243 
110 1 0.45 0.55 0.05 0 -4.12243 
111 1 0.5 0.5 0 1.59744e-29 -4.12243 
112 1 0.55 0.55 0.05 0 -4.12243 
113 1 0.6 0.5 0 2.17923e-28 -4.12243 
114 1 0.65 0.55 0.05 2.01948e-28 -4.12243 
115 1 0.7 0.5 0 1.59744e-29 -4.12243 
116 1 0.75 0.55 0.05 0 -4.12243 
117 1 0.8 0.5 0 1.59744e-29 -4.12243 
118 1 0.85 0.55 0.05 0 -4.12243 
119 1 0.9 0.5 0 1.59744e-29 -4.12243 
120 1 0.95 0.55 0.05 2.01948e-28 -4.12243 
121 1 0 0.6 0 2.33897e-28 -4.12243 
122 1 0.05 0.65 0.05 2.01948e-28 -4.12243 
123 1 0.1 0.6 0 2.17923e-28 -4.12243 
124 1 0.15 0.65 0.05 2.01948e-28 -4.12243 
125 1 0.2 0.6 0 2.17923e-28 -4.12243 
126 1 0.25 0.65 0.05 2.1457e-28 -4.12243 
127 1 0.3 0.6 0 2.17923e-28 -4.12243 
128 1 0.35 0.65 0.05 2.01948e-28 -4.12243 
129 1 0.4 0.6 0 2.17923e-28 -4.12243 
130 1 0.45 0.65 0.05 2.01948e-28 -4.12243 
131 1 0.5 0.6 0 2.17923e-28 -4.12243 
132 1 0.55 0.65 0.05 2.01948e-28 -4.12243 
133 1 0.6 0.6 0 4.19871e-28 -4.12243 
134 1 0.65 0.65 0.05 4.03897e-28 -4.12243 
135 1 0.7 0.6 0 2.17923e-28 -4.12243 
136 1 0.75 0.65 0.05 2.01948e-28 -4.12243 
137 1 0.8 0.6 0 2.17923e-28 -4.12243 
138 1 0.85 0.65 0.05 2.01948e-28 -4.12243 
139 1 0.9 0.6 0 2.17923e-28 -4.12243 
140 1 0.95 0.65 0.05 4.03897e-28 -4.12243 
141 1 0 0.7 0 3.19489e-29 -4.12243 
142 1 0.05 0.75 0.05 0 -4.12243 
143 1 0.1 0.7 0 1.59744e-29 -4.12243 
144 1 0.15 0.75 0.05 0 -4.12243 
145 1 0.2 0.7 0 1.59744e-29 -4.12243 
146 1 0.25 0.75 0.05 1.26218e-29 -4.12243 
147 1 0.3 0.7 0 1.59744e-29 -4.12243 
148 1 0.35 0.75 0.05 0 -4.12243 
149 1 0.4 0.7 0 1.59744e-29 -4.12243 
150 1 0.45 0.75 0.05 0 -4.12243 
151 1 0.5 0.7 0 1.59744e-29 -4.12243 
152 1 0.55 0.75 0.05 0 -4.12243 
153 1 0.6 0.7 0 2.17923e-28 -4.12243 
154 1 0.65 0.75 0.05 2.01948e-28 -4.12243 
155 1 0.7 0.7 0 1.59744e-29 -4.12243 
156 1 0.75 0.75 0.05 0 -4.12243 
157 1 0.8 0.7 0 1.59744e-29 -4.12243 
158 1 0.85 0.75 0.05 0 -4.12243 
159 1 0.9 0.7 0 1.59744e-29 -4.12243 
160 1 0.95 0.75 0.05 2.01948e-28 -4.12243 
161 1 0 0.8 0 3.19489e-29 -4.12243 
162 1 0.05 0.85 0.05 0 -4.1218 
163 1 0.1 0.8 0 1.59744e-29 -4.12243 
164 1 0.15 0.85 0.05 0 -4.12243 
165 1 0.2 0.8 0 1.59744e-29 -4.12243 
166 1 0.25 0.85 0.05 1.26218e-29 -4.12243 
167 1 0.3 0.8 0 1.59744e-29 -4.12243 
168 1 0.35 0.85 0.05 0 -4.12243 
169 1 0.4 0.8 0 1.59744e-29 -4.12243 
170 1 0.45 0.85 0.05 0 -4.12243 
171 1 0.5 0.8 0 1.59744e-29 -4.12243 
172 1 0.55 0.85 0.05 0 -4.12243 
173 1 0.6 0.8 0 2.17923e-28 -4.12243 
174 1 0.65 0.85 0.05 2.01948e-28 -4.12243 
175 1 0.7 0.8 0 1.59744e-29 -4.12243 
176 1 0.75 0.85 0.05 0 -4.12243 
177 1 0.8 0.8 0 1.59744e-29 -4.12243 
178 1 0.85 0.85 0.05 0 -4.12243 
179 1 0.9 0.8 0 1.59744e-29 -4.12243 
180 1 0.95 0.85 0.05 2.01948e-28 -4.1218 
181 1 0 0.9 0 3.19489e-29 -3.99995 
182 1 0.05 0.95 0.05 6.11327 -4.00688 
183 1 0.1 0.9 0 1.59744e-29 -4.1091 
184 1 0.15 0.95 0.05 2.01948e-28 -4.1218 
185 1 0.2 0.9 0 1.59744e-29 -4.12243 
186 1 0.25 0.95 0.05 2.1457e-28 -4.12243 
187 1 0.3 0.9 0 1.59744e-29 -4.12243 
188 1 0.35 0.95 0.05 2.01948e-28 -4.12243 
189 1 0.4 0.9 0 1.59744e-29 -4.12243 
190 1 0.45 0.95 0.05 2.01948e-28 -4.12243 
191 1 0.5 0.9 0 1.59744e-29 -4.12243 
192 1 0.55 0.95 0.05 2.01948e-28 -4.12243 
193 1 0.6 0.9 0 2.17923e-28 -4.12243 
194 1 0.65 0.95 0.05 4.03897e-28 -4.12243 
195 1 0.7 0.9 0 1.59744e-29 -4.12243 
196 1 0.75 0.95 0.05 2.01948e-28 -4.12243 
197 1 0.8 0.9 0 1.59744e-29 -4.12243 
198 1 0.85 0.95 0.05 2.01948e-28 -4.1218 
199 1 0.9 0.9 0 1.59744e-29 -4.1091 
200 1 0.95 0.95 0.05 6.11327 -4.00688 
201 1 0 0 0.1 3.19489e-29 -3.99995 
202 1 0.05 0.05 0.15 0 -4.1218 
203 1 0.1 0 0.1 1.59744e-29 -4.1091 
204 1 0.15 0.05 0.15 0 -4.12243 
205 1 0.2 0 0.1 1.59744e-29 -4.12243 
206 1 0.25 0.05 0.15 1.26218e-29 -4.12243 
207 1 0.3 0 0.1 1.59744e-29 -4.12243 
208 1 0.35 0.05 0.15 0 -4.12243 
209 1 0.4 0 0.1 1.59744e-29 -4.12243 
210 1 0.45 0.05 0.15 0 -4.12243 
211 1 0.5 0 0.1 1.59744e-29 -4.12243 
212 1 0.55 0.05 0.15 0 -4.12243 
213 1 0.6 0 0.1 2.17923e-28 -4.12243 
214 1 0.65 0.05 0.15 2.01948e-28 -4.12243 
215 1 0.7 0 0.1 1.59744e-29 -4.12243 
216 1 0.75 0.05 0.15 0 -4.12243 
217 1 0.8 0 0.1 1.59744e-29 -4.12243 
218 1 0.85 0.05 0.15 0 -4.12243 
219 1 0.9 0 0.1 1.59744e-29 -4.1091 
220 1 0.95 0.05 0.15 2.01948e-28 -4.1218 
221 1 0 0.1 0.1 1.59744e-29 -4.1091 
222 1 0.05 0.15 0.15 0 -4.12243 
223 1 0.1 0.1 0.1 0 -4.12228 
224 1 0.15 0.15 0.15 0 -4.12243 
225 1 0.2 0.1 0.1 0 -4.12243 
226 1 0.25 0.15 0.15 1.26218e-29 -4.12243 
227 1 0.3 0.1 0.1 0 -4.12243 
228 1 0.35 0.15 0.15 0 -4.12243 
229 1 0.4 0.1 0.1 0 -4.12243 
230 1 0.45 0.15 0.15 0 -4.12243 
231 1 0.5 0.1 0.1 0 -4.12243 
232 1 0.55 0.15 0.15 0 -4.12243 
233 1 0.6 0.1 0.1 2.01948e-28 -4.12243 
234 1 0.65 0.15 0.15 2.01948e-28 -4.12243 
235 1 0.7 0.1 0.1 0 -4.12243 
236 1 0.75 0.15 0.15 0 -4.12243 
237 1 0.8 0.1 0.1 0 -4.12243 
238 1 0.85 0.15 0.15 0 -4.12243 
239 1 0.9 0.1 0.1 0 -4.12228 
240 1 0.95 0.15 0.15 2.01948e-28 -4.12243 
241 1 0 0.2 0.1 1.59744e-29 -4.12243 
242 1 0.05 0.25 0.15 1.26218e-29 -4.12243 
243 1 0.1 0.2 0.1 0 -4.12243 
244 1 0.15 0.25 0.15 1.26218e-29 -4.12243 
245 1 0.2 0.2 0.1 0 -4.12243 
246 1 0.25 0.25 0.15 2.52435e-29 -4.12243 
247 1 0.3 0.2 0.1 0 -4.12243 
248 1 0.35 0.25 0.15 1.26218e-29 -4.12243 
249 1 0.4 0.2 0.1 0 -4.12243 
250 1 0.45 0.25 0.15 1.26218e-29 -4.12243 
251 1 0.5 0.2 0.1 0 -4.12243 
252 1 0.55 0.25 0.15 1.26218e-29 -4.12243 
253 1 0.6 0.2 0.1 2.01948e-28 -4.12243 
254 1 0.65 0.25 0.15 2.1457e-28 -4.12243 
255 1 0.7 0.2 0.1 0 -4.12243 
256 1 0.75 0.25 0.15 1.26218e-29 -4.12243 
257 1 0.8 0.2 0.1 0 -4.12243 
258 1 0.85 0.25 0.15 1.26218e-29 -4.12243 
259 1 0.9 0.2 0.1 0 -4.12243 
260 1 0.95 0.25 0.15 2.1457e-28 -4.12243 
261 1 0 0.3 0.1 1.59744e-29 -4.12243 
262 1 0.05 0.35 0.15 0 -4.12243 
263 1 0.1 0.3 0.1 0 -4.12243 
264 1 0.15 0.35 0.15 0 -4.12243 
265 1 0.2 0.3 0.1 0 -4.12243 
266 1 0.25 0.35 0.15 1.26218e-29 -4.12243 
267 1 0.3 0.3 0.1 0 -4.12243 
268 1 0.35 0.35 0.15 0 -4.12243 
269 1 0.4 0.3 0.1 0 -4.12243 
270 1 0.45 0.35 0.15 0 -4.12243 
271 1 0.5 0.3 0.1 0 -4.12243 
272 1 0.55 0.35 0.15 0 -4.12243 
273 1 0.6 0.3 0.1 2.01948e-28 -4.12243 
274 1 0.65 0.35 0.15 2.01948e-28 -4.12243 
275 1 0.7 0.3 0.1 0 -4.12243 
276 1 0.75 0.35 0.15 0 -4.12243 
277 1 0.8 0.3 0.1 0 -4.12243 
278 1 0.85 0.35 0.15 0 -4.12243 
279 1 0.9 0.3 0.1 0 -4.12243 
280 1 0.95 0.35 0.15 2.01948e-28 -4.12243 
281 1 0 0.4 0.1 1.59744e-29 -4.12243 
282 1 0.05 0.45 0.15 0 -4.12243 
283 1 0.1 0.4 0.1 0 -4.12243 
284 1 0.15 0.45 0.15 0 -4.12243 
285 1 0.2 0.4 0.1 0 -4.12243 
286 1 0.25 0.45 0.15 1.26218e-29 -4.12243 
287 1 0.3 0.4 0.1 0 -4.12243 
288 1 0.35 0.45 0.15 0 -4.12243 
289 1 0.4 0.4 0.1 0 -4.12243 
290 1 0.45 0.45 0.15 0 -4.12243 
291 1 0.5 0.4 0.1 0 -4.12243 
292 1 0.55 0.45 0.15 0 -4.12243 
293 1 0.6 0.4 0.1 2.01948e-28 -4.12243 
294 1 0.65 0.45 0.15 2.01948e-28 -4.12243 
295 1 0.7 0.4 0.1 0 -4.12243 
296 1 0.75 0.45 0.15 0 -4.12243 
297 1 0.8 0.4 0.1 0 -4.12243 
298 1 0.85 0.45 0.15 0 -4.12243 
299 1 0.9 0.4 0.1 0 -4.12243 
300 1 0.95 0.45 0.15 2.01948e-28 -4.12243 
301 1 0 0.5 0.1 1.59744e-29 -4.12243 
302 1 0.05 0.55 0.15 0 -4.12243 
303 1 0.1 0.5 0.1 0 -4.12243 
304 1 0.15 0.55 0.15 0 -4.12243 
305 1 0.2 0.5 0.1 0 -4.12243 
306 1 0.25 0.55 0.15 1.26218e-29 -4.12243 
307 1 0.3 0.5 0.1 0 -4.12243 
308 1 0.35 0.55 0.15 0 -4.12243 
309 1 0.4 0.5 0.1 0 -4.12243 
310 1 0.45 0.55 0.15 0 -4.12243 
311 1 0.5 0.5 0.1 0 -4.12243 
312 1 0.55 0.55 0.15 0 -4.12243 
313 1 0.6 0.5 0.1 2.01948e-28 -4.12243 
314 1 0.65 0.55 0.15 2.01948e-28 -4.12243 
315 1 0.7 0.5 0.1 0 -4.12243 
316 1 0.75 0.55 0.15 0 -4.12243 
317 1 0.8 0.5 0.1 0 -4.12243 
318 1 0.85 0.55 0.15 0 -4.12243 
319 1 0.9 0.5 0.1 0 -4.12243 
320 1 0.95 0.55 0.15 2.01948e-28 -4.12243 
321 1 0 0.6 0.1 2.17923e-28 -4.12243 
322 1 0.05 0.65 0.15 2.01948e-28 -4.12243 
323 1 0.1 0.6 0.1 2.01948e-28 -4.12243 
324 1 0.15 0.65 0.15 2.01948e-28 -4.12243 
325 1 0.2 0.6 0.1 2.01948e-28 -4.12243 
326 1 0.25 0.65 0.15 2.1457e-28 -4.12243 
327 1 0.3 0.6 0.1 2.01948e-28 -4.12243 
328 1 0.35 0.65 0.15 2.01948e-28 -4.12243 
329 1 0.4 0.6 0.1 2.01948e-28 -4.12243 
330 1 0.45 0.65 0.15 2.01948e-28 -4.12243 
331 1 0.5 0.6 0.1 2.01948e-28 -4.12243 
332 1 0.55 0.65 0.15 2.01948e-28 -4.12243 
333 1 0.6 0.6 0.1 4.03897e-28 -4.12243 
334 1 0.65 0.65 0.15 4.03897e-28 -4.12243 
335 1 0.7 0.6 0.1 2.01948e-28 -4.12243 
336 1 0.75 0.65 0.15 2.01948e-28 -4.12243 
337 1 0.8 0.6 0.1 2.01948e-28 -4.12243 
338 1 0.85 0.65 0.15 2.01948e-28 -4.12243 
339 1 0.9 0.6 0.1 2.01948e-28 -4.12243 
340 1 0.95 0.65 0.15 4.03897e-28 -4.12243 
341 1 0 0.7 0.1 1.59744e-29 -4.12243 
342 1 0.05 0.75 0.15 0 -4.12243 
343 1 0.1 0.7 0.1 0 -4.12243 
344 1 0.15 0.75 0.15 0 -4.12243 
345 1 0.2 0.7 0.1 0 -4.12243 
346 1 0.25 0.75 0.15 1.26218e-29 -4.12243 
347 1 0.3 0.7 0.1 0 -4.12243 
348 1 0.35 0.75 0.15 0 -4.12243 
349 1 0.4 0.7 0.1 0 -4.12243 
350 1 0.45 0.75 0.15 0 -4.12243 
351 1 0.5 0.7 0.1 0 -4.12243 
352 1 0.55 0.75 0.15 0 -4.12243 
353 1 0.6 0.7 0.1 2.01948e-28 -4.12243 
354 1 0.65 0.75 0.15 2.01948e-28 -4.12243 
355 1 0.7 0.7 0.1 0 -4.12243 
356 1 0.75 0.75 0.15 0 -4.12243 
357 1 0.8 0.7 0.1 0 -4.12243 
358 1 0.85 0.75 0.15 0 -4.12243 
359 1 0.9 0.7 0.1 0 -4.12243 
360 1 0.95 0.75 0.15 2.01948e-28 -4.12243 
361 1 0 0.8 0.1 1.59744e-29 -4.12243 
362 1 0.05 0.85 0.15 0 -4.12243 
363 1 0.1 0.8 0.1 0 -4.12243 
364 1 0.15 0.85 0.15 0 -4.12243 
365 1 0.2 0.8 0.1 0 -4.12243 
366 1 0.25 0.85 0.15 1.26218e-29 -4.12243 
367 1 0.3 0.8 0.1 0 -4.12243 
368 1 0.35 0.85 0.15 0 -4.12243 
369 1 0.4 0.8 0.1 0 -4.12243 
370 1 0.45 0.85 0.15 0 -4.12243 
371 1 0.5 0.8 0.1 0 -4.12243 
372 1 0.55 0.85 0.15 0 -4.12243 
373 1 0.6 0.8 0.1 2.01948e-28 -4.12243 
374 1 0.65 0.85 0.15 2.01948e-28 -4.12243 
375 1 0.7 0.8 0.1 0 -4.12243 
376 1 0.75 0.85 0.15 0 -4.12243 
377 1 0.8 0.8 0.1 0 -4.12243 
378 1 0.85 0.85 0.15 0 -4.12243 
379 1 0.9 0.8 0.1 0 -4.12243 
380 1 0.95 0.85 0.15 2.01948e-28 -4.12243 
381 1 0 0.9 0.1 1.59744e-29 -4.1091 
382 1 0.05 0.95 0.15 2.01948e-28 -4.1218 
383 1 0.1 0.9 0.1 0 -4.12228 
384 1 0.15 0.95 0.15 2.01948e-28 -4.12243 
385 1 0.2 0.9 0.1 0 -4.12243 
386 1 0.25 0.95 0.15 2.1457e-28 -4.12243 
387 1 0.3 0.9 0.1 0 -4.12243 
388 1 0.35 0.95 0.15 2.01948e-28 -4.12243 
389 1 0.4 0.9 0.1 0 -4.12243 
390 1 0.45 0.95 0.15 2.01948e-28 -4.12243 
391 1 0.5 0.9 0.1 0 -4.12243 
392 1 0.55 0.95 0.15 2.01948e-28 -4.12243 
393 1 0.6 0.9 0.1 2.01948e-28 -4.12243 
394 1 0.65 0.95 0.15 4.03897e-28 -4.12243 
395 1 0.7 0.9 0.1 0 -4.12243 
396 1 0.75 0.95 0.15 2.01948e-28 -4.12243 
397 1 0.8 0.9 0.1 0 -4.12243 
398 1 0.85 0.95 0.15 2.01948e-28 -4.12243 
399 1 0.9 0.9 0.1 0 -4.12228 
400 1 0.95 0.95 0.15 4.03897e-28 -4.1218 
401 1 0 0 0.2 3.19489e-29 -4.12243 
402 1 0.05 0.05 0.25 1.26218e-29 -4.12243 
403 1 0.1 0 0.2 1.59744e-29 -4.12243 
404 1 0.15 0.05 0.25 1.26218e-29 -4.12243 
405 1 0.2 0 0.2 1.59744e-29 -4.12243 
406 1 0.25 0.05 0.25 2.52435e-29 -4.12243 
407 1 0.3 0 0.2 1.59744e-29 -4.12243 
408 1 0.35 0.05 0.25 1.26218e-29 -4.12243 
409 1 0.4 0 0.2 1.59744e-29 -4.12243 
410 1 0.45 0.05 0.25 1.26218e-29 -4.12243 
411 1 0.5 0 0.2 1.59744e-29 -4.12243 
412 1 0.55 0.05 0.25 1.26218e-29 -4.12243 
413 1 0.6 0 0.2 2.17923e-28 -4.12243 
414 1 0.65 0.05 0.25 2.1457e-28 -4.12243 
415 1 0.7 0 0.2 1.59744e-29 -4.12243 
416 1 0.75 0.05 0.25 1.26218e-29 -4.12243 
417 1 0.8 0 0.2 1.59744e-29 -4.12243 
418 1 0.85 0.05 0.25 1.26218e-29 -4.12243 
419 1 0.9 0 0.2 1.59744e-29 -4.12243 
420 1 0.95 0.05 0.25 2.1457e-28 -4.12243 
421 1 0 0.1 0.2 1.59744e-29 -4.12243 
422 1 0.05 0.15 0.25 1.26218e-29 -4.12243 
423 1 0.1 0.1 0.2 0 -4.12243 
424 1 0.15 0.15 0.25 1.26218e-29 -4.12243 
425 1 0.2 0.1 0.2 0 -4.12243 
426 1 0.25 0.15 0.25 2.52435e-29 -4.12243 
427 1 0.3 0.1 0.2 0 -4.12243 
428 1 0.35 0.15 0.25 1.26218e-29 -4.12243 
429 1 0.4 0.1 0.2 0 -4.12243 
430 1 0.45 0.15 0.25 1.26218e-29 -4.12243 
431 1 0.5 0.1 0.2 0 -4.12243 
432 1 0.55 0.15 0.25 1.26218e-29 -4.12243 
433 1 0.6 0.1 0.2 2.01948e-28 -4.12243 
434 1 0.65 0.15 0.25 2.1457e-28 -4.12243 
435 1 0.7 0.1 0.2 0 -4.12243 
436 1 0.75 0.15 0.25 1.26218e-29 -4.12243 
437 1 0.8 0.1 0.2 0 -4.12243 
438 1 0.85 0.15 0.25 1.26218e-29 -4.12243 
439 1 0.9 0.1 0.2 0 -4.12243 
440 1 0.95 0.15 0.25 2.1457e-28 -4.12243 
441 1 0 0.2 0.2 1.59744e-29 -4.12243 
442 1 0.05 0.25 0.25 2.52435e-29 -4.12243 
443 1 0.1 0.2 0.2 0 -4.12243 
444 1 0.15 0.25 0.25 2.52435e-29 -4.12243 
445 1 0.2 0.2 0.2 0 -4.12243 
446 1 0.25 0.25 0.25 3.78653e-29 -4.12243 
447 1 0.3 0.2 0.2 0 -4.12243 
448 1 0.35 0.25 0.25 2.52435e-29 -4.12243 
449 1 0.4 0.2 0.2 0 -4.12243 
450 1 0.45 0.25 0.25 2.52435e-29 -4.12243 
451 1 0.5 0.2 0.2 0 -4.12243 
452 1 0.55 0.25 0.25 2.52435e-29 -4.12243 
453 1 0.6 0.2 0.2 2.01948e-28 -4.12243 
454 1 0.65 0.25 0.25 2.27192e-28 -4.12243 
455 1 0.7 0.2 0.2 0 -4.12243 
456 1 0.75 0.25 0.25 2.52435e-29 -4.12243 
457 1 0.8 0.2 0.2 0 -4.12243 
458 1 0.85 0.25 0.25 2.52435e-29 -4.12243 
459 1 0.9 0.2 0.2 0 -4.12243 
460 1 0.95 0.25 0.25 2.27192e-28 -4.12243 
461 1 0 0.3 0.2 1.59744e-29 -4.12243 
462 1 0.05 0.35 0.25 1.26218e-29 -4.12243 
463 1 0.1 0.3 0.2 0 -4.12243 
464 1 0.15 0.35 0.25 1.26218e-29 -4.12243 
465 1 0.2 0.3 0.2 0 -4.12243 
466 1 0.25 0.35 0.25 2.52435e-29 -4.12243 
467 1 0.3 0.3 0.2 0 -4.12243 
468 1 0.35 0.35 0.25 1.26218e-29 -4.12243 
469 1 0.4 0.3 0.2 0 -4.12243 
470 1 0.45 0.35 0.25 1.26218e-29 -4.12243 
471 1 0.5 0.3 0.2 0 -4.12243 
472 1 0.55 0.35 0.25 1.26218e-29 -4.12243 
473 1 0.6 0.3 0.2 2.01948e-28 -4.12243 
474 1 0.65 0.35 0.25 2.1457e-28 -4.12243 
475 1 0.7 0.3 0.2 0 -4.12243 
476 1 0.75 0.35 0.25 1.26218e-29 -4.12243 
477 1 0.8 0.3 0.2 0 -4.12243 
478 1 0.85 0.35 0.25 1.26218e-29 -4.12243 
479 1 0.9 0.3 0.2 0 -4.12243 
480 1 0.95 0.35 0.25 2.1457e-28 -4.12243 
481 1 0 0.4 0.2 1.59744e-29 -4.12243 
482 1 0.05 0.45 0.25 1.26218e-29 -4.12243 
483 1 0.1 0.4 0.2 0 -4.12243 
484 1 0.15 0.45 0.25 1.26218e-29 -4.12243 
485 1 0.2 0.4 0.2 0 -4.12243 
486 1 0.25 0.45 0.25 2.52435e-29 -4.12243 
487 1 0.3 0.4 0.2 0 -4.12243 
488 1 0.35 0.45 0.25 1.26218e-29 -4.12243 
489 1 0.4 0.4 0.2 0 -4.12243 
490 1 0.45 0.45 0.25 1.26218e-29 -4.12243 
491 1 0.5 0.4 0.2 0 -4.12243 
492 1 0.55 0.45 0.25 1.26218e-29 -4.12243 
493 1 0.6 0.4 0.2 2.01948e-28 -4.12243 
494 1 0.65 0.45 0.25 2.1457e-28 -4.12243 
495 1 0.7 0.4 0.2 0 -4.12243 
496 1 0.75 0.45 0.25 1.26218e-29 -4.12243 
497 1 0.8 0.4 0.2 0 -4.12243 
498 1 0.85 0.45 0.25 1.26218e-29 -4.12243 
499 1 0.9 0.4 0.2 0 -4.12243 
500 1 0.95 0.45 0.25 2.1457e-28 -4.12243 
501 1 0 0.5 0.2 1.59744e-29 -4.12243 
502 1 0.05 0.55 0.25 1.26218e-29 -4.12243 
503 1 0.1 0.5 0.2 0 -4.12243 
504 1 0.15 0.55 0.25 1.26218e-29 -4.12243 
505 1 0.2 0.5 0.2 0 -4.12243 
506 1 0.25 0.55 0.25 2.52435e-29 -4.12243 
507 1 0.3 0.5 0.2 0 -4.12243 
508 1 0.35 0.55 0.25 1.26218e-29 -4.12243 
509 1 0.4 0.5 0.2 0 -4.12243 
510 1 0.45 0.55 0.25 1.26218e-29 -4.12243 
511 1 0.5 0.5 0.2 0 -4.12243 
512 1 0.55 0.55 0.25 1.26218e-29 -4.12243 
513 1 0.6 0.5 0.2 2.01948e-28 -4.12243 
514 1 0.65 0.55 0.25 2.1457e-28 -4.12243 
515 1 0.7 0.5 0.2 0 -4.12243 
516 1 0.75 0.55 0.25 1.26218e-29 -4.12243 
517 1 0.8 0.5 0.2 0 -4.12243 
518 1 0.85 0.55 0.25 1.26218e-29 -4.12243 
519 1 0.9 0.5 0.2 0 -4.12243 
520 1 0.95 0.55 0.25 2.1457e-28 -4.12243 
521 1 0 0.6 0.2 2.17923e-28 -4.12243 
522 1 0.05 0.65 0.25 2.1457e-28 -4.12243 
523 1 0.1 0.6 0.2 2.01948e-28 -4.12243 
524 1 0.15 0.65 0.25 2.1457e-28 -4.12243 
525 1 0.2 0.6 0.2 2.01948e-28 -4.12243 
526 1 0.25 0.65 0.25 2.27192e-28 -4.12243 
527 1 0.3 0.6 0.2 2.01948e-28 -4.12243 
528 1 0.35 0.65 0.25 2.1457e-28 -4.12243 
529 1 0.4 0.6 0.2 2.01948e-28 -4.12243 
530 1 0.45 0.65 0.25 2.1457e-28 -4.12243 
531 1 0.5 0.6 0.2 2.01948e-28 -4.12243 
532 1 0.55 0.65 0.25 2.1457e-28 -4.12243 
533 1 0.6 0.6 0.2 4.03897e-28 -4.12243 
534 1 0.65 0.65 0.25 4.16519e-28 -4.12243 
535 1 0.7 0.6 0.2 2.01948e-28 -4.12243 
536 1 0.75 0.65 0.25 2.1457e-28 -4.12243 
537 1 0.8 0.6 0.2 2.01948e-28 -4.12243 
538 1 0.85 0.65 0.25 2.1457e-28 -4.12243 
539 1 0.9 0.6 0.2 2.01948e-28 -4.12243 
540 1 0.95 0.65 0.25 4.16519e-28 -4.12243 
541 1 0 0.7 0.2 1.59744e-29 -4.12243 
542 1 0.05 0.75 0.25 1.26218e-29 -4.12243 
543 1 0.1 0.7 0.2 0 -4.12243 
544 1 0.15 0.75 0.25 1.26218e-29 -4.12243 
545 1 0.2 0.7 0.2 0 -4.12243 
546 1 0.25 0.75 0.25 2.52435e-29 -4.12243 
547 1 0.3 0.7 0.2 0 -4.12243 
548 1 0.35 0.75 0.25 1.26218e-29 -4.12243 
549 1 0.4 0.7 0.2 0 -4.12243 
550 1 0.45 0.75 0.25 1.26218e-29 -4.12243 
551 1 0.5 0.7 0.2 0 -4.12243 
552 1 0.55 0.75 0.25 1.26218e-29 -4.12243 
553 1 0.6 0.7 0.2 2.01948e-28 -4.12243 
554 1 0.65 0.75 0.25 2.1457e-28 -4.12243 
555 1 0.7 0.7 0.2 0 -4.12243 
556 1 0.75 0.75 0.25 1.26218e-29 -4.12243 
557 1 0.8 0.7 0.2 0 -4.12243 
558 1 0.85 0.75 0.25 1.26218e-29 -4.12243 
559 1 0.9 0.7 0.2 0 -4.12243 
560 1 0.95 0.75 0.25 2.1457e-28 -4.12243 
561 1 0 0.8 0.2 1.59744e-29 -4.12243 
562 1 0.05 0.85 0.25 1.26218e-29 -4.12243 
563 1 0.1 0.8 0.2 0 -4.12243 
564 1 0.15 0.85 0.25 1.26218e-29 -4.12243 
565 1 0.2 0.8 0.2 0 -4.12243 
566 1 0.25 0.85 0.25 2.52435e-29 -4.12243 
567 1 0.3 0.8 0.2 0 -4.12243 
568 1 0.35 0.85 0.25 1.26218e-29 -4.12243 
569 1 0.4 0.8 0.2 0 -4.12243 
570 1 0.45 0.85 0.25 1.26218e-29 -4.12243 
571 1 0.5 0.8 0.2 0 -4.12243 
572 1 0.55 0.85 0.25 1.26218e-29 -4.12243 
573 1 0.6 0.8 0.2 2.01948e-28 -4.12243 
574 1 0.65 0.85 0.25 2.1457e-28 -4.12243 
575 1 0.7 0.8 0.2 0 -4.12243 
576 1 0.75 0.85 0.25 1.26218e-29 -4.12243 
577 1 0.8 0.8 0.2 0 -4.12243 
578 1 0.85 0.85 0.25 1.26218e-29 -4.12243 
579 1 0.9 0.8 0.2 0 -4.12243 
580 1 0.95 0.85 0.25 2.1457e-28 -4.12243 
581 1 0 0.9 0.2 1.59744e-29 -4.12243 
582 1 0.05 0.95 0.25 2.1457e-28 -4.12243 
583 1 0.1 0.9 0.2 0 -4.12243 
584 1 0.15 0.95 0.25 2.1457e-28 -4.12243 
585 1 0.2 0.9 0.2 0 -4.12243 
586 1 0.25 0.95 0.25 2.27192e-28 -4.12243 
587 1 0.3 0.9 0.2 0 -4.12243 
588 1 0.35 0.95 0.25 2.1457e-28 -4.12243 
589 1 0.4 0.9 0.2 0 -4.12243 
590 1 0.45 0.95 0.25 2.1457e-28 -4.12243 
591 1 0.5 0.9 0.2 0 -4.12243 
592 1 0.55 0.95 0.25 2.1457e-28 -4.12243 
593 1 0.6 0.9 0.2 2.01948e-28 -4.12243 
594 1 0.65 0.95 0.25 4.16519e-28 -4.12243 
595 1 0.7 0.9 0.2 0 -4.12243 
596 1 0.75 0.95 0.25 2.1457e-28 -4.12243 
597 1 0.8 0.9 0.2 0 -4.12243 
598 1 0.85 0.95 0.25 2.1457e-28 -4.12243 
599 1 0.9 0.9 0.2 0 -4.12243 
600 1 0.95 0.95 0.25 4.16519e-28 -4.12243 
601 1 0 0 0.3 3.19489e-29 -4.12243 
602 1 0.05 0.05 0.35 0 -4.12243 
603 1 0.1 0 0.3 1.59744e-29 -4.12243 
604 1 0.15 0.05 0.35 0 -4.12243 
605 1 0.2 0 0.3 1.59744e-29 -4.12243 
606 1 0.25 0.05 0.35 1.26218e-29 -4.12243 
607 1 0.3 0 0.3 1.59744e-29 -4.12243 
608 1 0.35 0.05 0.35 0 -4.12243 
609 1 0.4 0 0.3 1.59744e-29 -4.12243 
610 1 0.45 0.05 0.35 0 -4.12243 
611 1 0.5 0 0.3 1.59744e-29 -4.12243 
612 1 0.55 0.05 0.35 0 -4.12243 
613 1 0.6 0 0.3 2.17923e-28 -4.12243 
614 1 0.65 0.05 0.35 2.01948e-28 -4.12243 
615 1 0.7 0 0.3 1.59744e-29 -4.12243 
616 1 0.75 0.05 0.35 0 -4.12243 
617 1 0.8 0 0.3 1.59744e-29 -4.12243 
618 1 0.85 0.05 0.35 0 -4.12243 
619 1 0.9 0 0.3 1.59744e-29 -4.12243 
620 1 0.95 0.05 0.35 2.01948e-28 -4.12243 
621 1 0 0.1 0.3 1.59744e-29 -4.12243 
622 1 0.05 0.15 0.35 0 -4.12243 
623 1 0.1 0.1 0.3 0 -4.12243 
624 1 0.15 0.15 0.35 0 -4.12243 
625 1 0.2 0.1 0.3 0 -4.12243 
626 1 0.25 0.15 0.35 1.26218e-29 -4.12243 
627 1 0.3 0.1 0.3 0 -4.12243 
628 1 0.35 0.15 0.35 0 -4.12243 
629 1 0.4 0.1 0.3 0 -4.12243 
630 1 0.45 0.15 0.35 0 -4.12243 
631 1 0.5 0.1 0.3 0 -4.12243 
632 1 0.55 0.15 0.35 0 -4.12243 
633 1 0.6 0.1 0.3 2.01948e-28 -4.12243 
634 1 0.65 0.15 0.35 2.01948e-28 -4.12243 
635 1 0.7 0.1 0.3 0 -4.12243 
636 1 0.75 0.15 0.35 0 -4.12243 
637 1 0.8 0.1 0.3 0 -4.12243 
638 1 0.85 0.15 0.35 0 -4.12243 
639 1 0.9 0.1 0.3 0 -4.12243 
640 1 0.95 0.15 0.35 2.01948e-28 -4.12243 
641 1 0 0.2 0.3 1.59744e-29 -4.12243 
642 1 0.05 0.25 0.35 1.26218e-29 -4.12243 
643 1 0.1 0.2 0.3 0 -4.12243 
644 1 0.15 0.25 0.35 1.26218e-29 -4.12243 
645 1 0.2 0.2 0.3 0 -4.12243 
646 1 0.25 0.25 0.35 2.52435e-29 -4.12243 
647 1 0.3 0.2 0.3 0 -4.12243 
648 1 0.35 0.25 0.35 1.26218e-29 -4.12243 
649 1 0.4 0.2 0.3 0 -4.12243 
650 1 0.45 0.25 0.35 1.26218e-29 -4.12243 
651 1 0.5 0.2 0.3 0 -4.12243 
652 1 0.55 0.25 0.35 1.26218e-29 -4.12243 
653 1 0.6 0.2 0.3 2.01948e-28 -4.12243 
654 1 0.65 0.25 0.35 2.1457e-28 -4.12243 
655 1 0.7 0.2 0.3 0 -4.12243 
656 1 0.75 0.25 0.35 1.26218e-29 -4.12243 
657 1 0.8 0.2 0.3 0 -4.12243 
658 1 0.85 0.25 0.35 1.26218e-29 -4.12243 
659 1 0.9 0.2 0.3 0 -4.12243 
660 1 0.95 0.25 0.35 2.1457e-28 -4.12243 
661 1 0 0.3 0.3 1.59744e-29 -4.12243 
662 1 0.05 0.35 0.35 0 -4.12243 
663 1 0.1 0.3 0.3 0 -4.12243 
664 1 0.15 0.35 0.35 0 -4.12243 
665 1 0.2 0.3 0.3 0 -4.12243 
666 1 0.25 0.35 0.35 1.26218e-29 -4.12243 
667 1 0.3 0.3 0.3 0 -4.12243 
668 1 0.35 0.35 0.35 0 -4.12243 
669 1 0.4 0.3 0.3 0 -4.12243 
670 1 0.45 0.35 0.35 0 -4.12243 
671 1 0.5 0.3 0.3 0 -4.12243 
672 1 0.55 0.35 0.35 0 -4.12243 
673 1 0.6 0.3 0.3 2.01948e-28 -4.12243 
674 1 0.65 0.35 0.35 2.01948e-28 -4.12243 
675 1 0.7 0.3 0.3 0 -4.12243 
676 1 0.75 0.35 0.35 0 -4.12243 
677 1 0.8 0.3 0.3 0 -4.12243 
678 1 0.85 0.35 0.35 0 -4.12243 
679 1 0.9 0.3 0.3 0 -4.12243 
680 1 0.95 0.35 0.35 2.01948e-28 -4.12243 
681 1 0 0.4 0.3 1.59744e-29 -4.12243 
682 1 0.05 0.45 0.35 0 -4.12243 
683 1 0.1 0.4 0.3 0 -4.12243 
684 1 0.15 0.45 0.35 0 -4.12243 
685 1 0.2 0.4 0.3 0 -4.12243 
686 1 0.25 0.45 0.35 1.26218e-29 -4.12243 
687 1 0.3 0.4 0.3 0 -4.12243 
688 1 0.35 0.45 0.35 0 -4.12243 
689 1 0.4 0.4 0.3 0 -4.12243 
690 1 0.45 0.45 0.35 0 -4.12243 
691 1 0.5 0.4 0.3 0 -4.12243 
692 1 0.55 0.45 0.35 0 -4.12243 
693 1 0.6 0.4 0.3 2.01948e-28 -4.12243 
694 1 0.65 0.45 0.35 2.01948e-28 -4.12243 
695 1 0.7 0.4 0.3 0 -4.12243 
696 1 0.75 0.45 0.35 0 -4.12243 
697 1 0.8 0.4 0.3 0 -4.12243 
698 1 0.85 0.45 0.35 0 -4.12243 
699 1 0.9 0.4 0.3 0 -4.12243 
700 1 0.95 0.45 0.35 2.01948e-28 -4.12243 
701 1 0 0.5 0.3 1.59744e-29 -4.12243 
702 1 0.05 0.55 0.35 0 -4.12243 
703 1 0.1 0.5 0.3 0 -4.12243 
704 1 0.15 0.55 0.35 0 -4.12243 
705 1 0.2 0.5 0.3 0 -4.12243 
706 1 0.25 0.55 0.35 1.26218e-29 -4.12243 
707 1 0.3 0.5 0.3 0 -4.12243 
708 1 0.35 0.55 0.35 0 -4.12243 
709 1 0.4 0.5 0.3 0 -4.12243 
710 1 0.45 0.55 0.35 0 -4.12243 
711 1 0.5 0.5 0.3 0 -4.12243 
712 1 0.55 0.55 0.35 0 -4.12243 
713 1 0.6 0.5 0.3 2.01948e-28 -4.12243 
714 1 0.65 0.55 0.35 2.01948e-28 -4.12243 
715 1 0.7 0.5 0.3 0 -4.12243 
716 1 0.75 0.55 0.35 0 -4.12243 
717 1 0.8 0.5 0.3 0 -4.12243 
718 1 0.85 0.55 0.35 0 -4.12243 
719 1 0.9 0.5 0.3 0 -4.12243 
720 1 0.95 0.55 0.35 2.01948e-28 -4.12243 
721 1 0 0.6 0.3 2.17923e-28 -4.12243 
722 1 0.05 0.65 0.35 2.01948e-28 -4.12243 
723 1 0.1 0.6 0.3 2.01948e-28 -4.12243 
724 1 0.15 0.65 0.35 2.01948e-28 -4.12243 
725 1 0.2 0.6 0.3 2.01948e-28 -4.12243 
726 1 0.25 0.65 0.35 2.1457e-28 -4.12243 
727 1 0.3 0.6 0.3 2.01948e-28 -4.12243 
728 1 0.35 0.65 0.35 2.01948e-28 -4.12243 
729 1 0.4 0.6 0.3 2.01948e-28 -4.12243 
730 1 0.45 0.65 0.35 2.01948e-28 -4.12243 
731 1 0.5 0.6 0.3 2.01948e-28 -4.12243 
732 1 0.55 0.65 0.35 2.01948e-28 -4.12243 
733 1 0.6 0.6 0.3 4.03897e-28 -4.12243 
734 1 0.65 0.65 0.35 4.03897e-28 -4.12243 
735 1 0.7 0.6 0.3 2.01948e-28 -4.12243 
736 1 0.75 0.65 0.35 2.01948e-28 -4.12243 
737 1 0.8 0.6 0.3 2.01948e-28 -4.12243 
738 1 0.85 0.65 0.35 2.01948e-28 -4.12243 
739 1 0.9 0.6 0.3 2.01948e-28 -4.12243 
740 1 0.95 0.65 0.35 4.03897e-28 -4.12243 
741 1 0 0.7 0.3 1.59744e-29 -4.12243 
742 1 0.05 0.75 0.35 0 -4.12243 
743 1 0.1 0.7 0.3 0 -4.12243 
744 1 0.15 0.75 0.35 0 -4.12243 
745 1 0.2 0.7 0.3 0 -4.12243 
746 1 0.25 0.75 0.35 1.26218e-29 -4.12243 
747 1 0.3 0.7 0.3 0 -4.12243 
748 1 0.35 0.75 0.35 0 -4.12243 
749 1 0.4 0.7 0.3 0 -4.12243 
750 1 0.45 0.75 0.35 0 -4.12243 
751 1 0.5 0.7 0.3 0 -4.12243 
752 1 0.55 0.75 0.35 0 -4.12243 
753 1 0.6 0.7 0.3 2.01948e-28 -4.12243 
754 1 0.65 0.75 0.35 2.01948e-28 -4.12243 
755 1 0.7 0.7 0.3 0 -4.12243 
756 1 0.75 0.75 0.35 0 -4.12243 
757 1 0.8 0.7 0.3 0 -4.12243 
758 1 0.85 0.75 0.35 0 -4.12243 
759 1 0.9 0.7 0.3 0 -4.12243 
760 1 0.95 0.75 0.35 2.01948e-28 -4.12243 
761 1 0 0.8 0.3 1.59744e-29 -4.12243 
762 1 0.05 0.85 0.35 0 -4.12243 
763 1 0.1 0.8 0.3 0 -4.12243 
764 1 0.15 0.85 0.35 0 -4.12243 
765 1 0.2 0.8 0.3 0 -4.12243 
766 1 0.25 0.85 0.35 1.26218e-29 -4.12243 
767 1 0.3 0.8 0.3 0 -4.12243 
768 1 0.35 0.85 0.35 0 -4.12243 
769 1 0.4 0.8 0.3 0 -4.12243 
770 1 0.45 0.85 0.35 0 -4.12243 
771 1 0.5 0.8 0.3 0 -4.12243 
772 1 0.55 0.85 0.35 0 -4.12243 
773 1 0.6 0.8 0.3 2.01948e-28 -4.12243 
774 1 0.65 0.85 0.35 2.01948e-28 -4.12243 
775 1 0.7 0.8 0.3 0 -4.12243 
776 1 0.75 0.85 0.35 0 -4.12243 
777 1 0.8 0.8 0.3 0 -4.12243 
778 1 0.85 0.85 0.35 0 -4.12243 
779 1 0.9 0.8 0.3 0 -4.12243 
780 1 0.95 0.85 0.35 2.01948e-28 -4.12243 
781 1 0 0.9 0.3 1.59744e-29 -4.12243 
782 1 0.05 0.95 0.35 2.01948e-28 -4.12243 
783 1 0.1 0.9 0.3 0 -4.12243 
784 1 0.15 0.95 0.35 2.01948e-28 -4.12243 
785 1 0.2 0.9 0.3 0 -4.12243 
786 1 0.25 0.95 0.35 2.1457e-28 -4.12243 
787 1 0.3 0.9 0.3 0 -4.12243 
788 1 0.35 0.95 0.35 2.01948e-28 -4.12243 
789 1 0.4 0.9 0.3 0 -4.12243 
790 1 0.45 0.95 0.35 2.01948e-28 -4.12243 
791 1 0.5 0.9 0.3 0 -4.12243 
792 1 0.55 0.95 0.35 2.01948e-28 -4.12243 
793 1 0.6 0.9 0.3 2.01948e-28 -4.12243 
794 1 0.65 0.95 0.35 4.03897e-28 -4.12243 
795 1 0.7 0.9 0.3 0 -4.12243 
796 1 0.75 0.95 0.35 2.01948e-28 -4.12243 
797 1 0.8 0.9 0.3 0 -4.12243 
798 1 0.85 0.95 0.35 2.01948e-28 -4.12243 
799 1 0.9 0.9 0.3 0 -4.12243 
800 1 0.95 0.95 0.35 4.03897e-28 -4.12243 
801 1 0 0 0.4 3.19489e-29 -4.12243 
802 1 0.05 0.05 0.45 0 -4.12243 
803 1 0.1 0 0.4 1.59744e-29 -4.12243 
804 1 0.15 0.05 0.45 0 -4.12243 
805 1 0.2 0 0.4 1.59744e-29 -4.12243 
806 1 0.25 0.05 0.45 1.26218e-29 -4.12243 
807 1 0.3 0 0.4 1.59744e-29 -4.12243 
808 1 0.35 0.05 0.45 0 -4.12243 
809 1 0.4 0 0.4 1.59744e-29 -4.12243 
810 1 0.45 0.05 0.45 0 -4.12243 
811 1 0.5 0 0.4 1.59744e-29 -4.12243 
812 1 0.55 0.05 0.45 0 -4.12243 
813 1 0.6 0 0.4 2.17923e-28 -4.12243 
814 1 0.65 0.05 0.45 2.01948e-28 -4.12243 
815 1 0.7 0 0.4 1.59744e-29 -4.12243 
816 1 0.75 0.05 0.45 0 -4.12243 