ITEM: TIMESTEP
23
ITEM: NUMBER OF ATOMS
1999
ITEM: BOX BOUNDS pp pp pp
0 28.55
0 28.55
0 28.55
ITEM: ATOMS id type xs ys zs c_csym c_eng 
2 1 0.0485331 0.0485331 0.0485331 5.51672 -4.03246 
3 1 0.101339 1 1 0.0710298 -3.98922 
4 1 0.149997 0.0500469 0.0500469 0.00263939 -4.11242 
5 1 0.200099 1 1 0.000132528 -4.1269 
6 1 0.250009 0.0500027 0.0500027 1.55211e-05 -4.12229 
7 1 0.300014 1 1 8.63787e-07 -4.12273 
8 1 0.350003 0.0499995 0.0499995 3.30996e-07 -4.12245 
9 1 0.400004 1 1 2.97862e-08 -4.12246 
10 1 0.450001 0.05 0.05 2.32962e-08 -4.12244 
11 1 0.5 1 1 1.51461e-28 -4.12244 
12 1 0.549999 0.05 0.05 2.32962e-08 -4.12244 
13 1 0.599996 1 1 2.97862e-08 -4.12246 
14 1 0.649997 0.0499995 0.0499995 3.30996e-07 -4.12245 
15 1 0.699986 1 1 8.63787e-07 -4.12273 
16 1 0.749991 0.0500027 0.0500027 1.55211e-05 -4.12229 
17 1 0.799901 1 1 0.000132528 -4.1269 
18 1 0.850003 0.0500469 0.0500469 0.00263939 -4.11242 
19 1 0.898661 1 1 0.0710298 -3.98922 
20 1 0.951467 0.0485331 0.0485331 5.51672 -4.03246 
21 1 1 0.101339 1 0.0710298 -3.98922 
22 1 0.0500469 0.149997 0.0500469 0.00263939 -4.11242 
23 1 0.0997573 0.0997573 1 0.00842485 -4.11984 
24 1 0.149862 0.149862 0.049982 0.000618614 -4.12355 
25 1 0.19997 0.099972 1 3.42459e-05 -4.12288 
26 1 0.249967 0.149972 0.0499909 2.66217e-06 -4.12231 
27 1 0.299997 0.0999953 1 1.86593e-06 -4.12243 
28 1 0.349993 0.149994 0.0499975 5.36669e-07 -4.1224 
29 1 0.4 0.0999991 1 1.30051e-07 -4.12244 
30 1 0.449999 0.149999 0.0499993 7.27277e-08 -4.12243 
31 1 0.5 0.1 1 2.44175e-08 -4.12244 
32 1 0.550001 0.149999 0.0499993 7.27277e-08 -4.12243 
33 1 0.6 0.0999991 1 1.30051e-07 -4.12244 
34 1 0.650007 0.149994 0.0499975 5.36669e-07 -4.1224 
35 1 0.700003 0.0999953 1 1.86593e-06 -4.12243 
36 1 0.750033 0.149972 0.0499909 2.66217e-06 -4.12231 
37 1 0.80003 0.099972 1 3.42459e-05 -4.12288 
38 1 0.850138 0.149862 0.049982 0.000618614 -4.12355 
39 1 0.900243 0.0997573 1 0.00842485 -4.11984 
40 1 0.949953 0.149997 0.0500469 0.00263939 -4.11242 
41 1 1 0.200099 1 0.000132528 -4.1269 
42 1 0.0500027 0.250009 0.0500027 1.55211e-05 -4.12229 
43 1 0.099972 0.19997 1 3.42459e-05 -4.12288 
44 1 0.149972 0.249967 0.0499909 2.66217e-06 -4.12231 
45 1 0.199921 0.199921 1 3.36324e-05 -4.12315 
46 1 0.249953 0.249953 0.0499926 7.29368e-06 -4.12274 
47 1 0.299974 0.199978 1 2.62469e-07 -4.12234 
48 1 0.349981 0.249984 0.049997 5.27969e-08 -4.12241 
49 1 0.399993 0.199995 1 1.61076e-07 -4.12241 
50 1 0.449995 0.249995 0.0499988 4.96968e-08 -4.12241 
51 1 0.5 0.199998 1 5.64091e-08 -4.12242 
52 1 0.550005 0.249995 0.0499988 4.96968e-08 -4.12241 
53 1 0.600007 0.199995 1 1.61076e-07 -4.12241 
54 1 0.650019 0.249984 0.049997 5.27969e-08 -4.12241 
55 1 0.700026 0.199978 1 2.62469e-07 -4.12234 
56 1 0.750047 0.249953 0.0499926 7.29368e-06 -4.12274 
57 1 0.800079 0.199921 1 3.36324e-05 -4.12315 
58 1 0.850028 0.249967 0.0499909 2.66217e-06 -4.12231 
59 1 0.900028 0.19997 1 3.42459e-05 -4.12288 
60 1 0.949997 0.250009 0.0500027 1.55211e-05 -4.12229 
61 1 1 0.300014 1 8.63787e-07 -4.12273 
62 1 0.0499995 0.350003 0.0499995 3.30996e-07 -4.12245 
63 1 0.0999953 0.299997 1 1.86593e-06 -4.12243 
64 1 0.149994 0.349993 0.0499975 5.36669e-07 -4.1224 
65 1 0.199978 0.299974 1 2.62469e-07 -4.12234 
66 1 0.249984 0.349981 0.049997 5.27969e-08 -4.12241 
67 1 0.299972 0.299972 1 1.72215e-06 -4.12256 
68 1 0.349983 0.349983 0.0499977 4.32809e-07 -4.12249 
69 1 0.399988 0.299989 1 2.09219e-08 -4.12243 
70 1 0.449994 0.349992 0.0499986 1.28897e-08 -4.12243 
71 1 0.5 0.299995 1 1.77519e-08 -4.12242 
72 1 0.550006 0.349992 0.0499986 1.28897e-08 -4.12243 
73 1 0.600012 0.299989 1 2.09219e-08 -4.12243 
74 1 0.650017 0.349983 0.0499977 4.32809e-07 -4.12249 
75 1 0.700028 0.299972 1 1.72215e-06 -4.12256 
76 1 0.750016 0.349981 0.049997 5.27969e-08 -4.12241 
77 1 0.800022 0.299974 1 2.62469e-07 -4.12234 
78 1 0.850006 0.349993 0.0499975 5.36669e-07 -4.1224 
79 1 0.900005 0.299997 1 1.86593e-06 -4.12243 
80 1 0.950001 0.350003 0.0499995 3.30996e-07 -4.12245 
81 1 1 0.400004 1 2.97862e-08 -4.12246 
82 1 0.05 0.450001 0.05 2.32962e-08 -4.12244 
83 1 0.0999991 0.4 1 1.30051e-07 -4.12244 
84 1 0.149999 0.449999 0.0499993 7.27277e-08 -4.12243 
85 1 0.199995 0.399993 1 1.61076e-07 -4.12241 
86 1 0.249995 0.449995 0.0499988 4.96968e-08 -4.12241 
87 1 0.299989 0.399988 1 2.09219e-08 -4.12243 
88 1 0.349992 0.449994 0.0499986 1.28897e-08 -4.12243 
89 1 0.39999 0.39999 1 1.1336e-07 -4.12246 
90 1 0.449996 0.449996 0.0499987 2.24511e-08 -4.12246 
91 1 0.5 0.399994 1 7.91716e-09 -4.12244 
92 1 0.550004 0.449996 0.0499987 2.24511e-08 -4.12246 
93 1 0.60001 0.39999 1 1.1336e-07 -4.12246 
94 1 0.650008 0.449994 0.0499986 1.28897e-08 -4.12243 
95 1 0.700011 0.399988 1 2.09219e-08 -4.12243 
96 1 0.750005 0.449995 0.0499988 4.96968e-08 -4.12241 
97 1 0.800005 0.399993 1 1.61076e-07 -4.12241 
98 1 0.850001 0.449999 0.0499993 7.27277e-08 -4.12243 
99 1 0.900001 0.4 1 1.30051e-07 -4.12244 
100 1 0.95 0.450001 0.05 2.32962e-08 -4.12244 
101 1 1 0.5 1 8.83524e-29 -4.12244 
102 1 0.05 0.549999 0.05 2.32962e-08 -4.12244 
103 1 0.1 0.5 1 2.44175e-08 -4.12244 
104 1 0.149999 0.550001 0.0499993 7.27277e-08 -4.12243 
105 1 0.199998 0.5 1 5.64091e-08 -4.12242 
106 1 0.249995 0.550005 0.0499988 4.96968e-08 -4.12241 
107 1 0.299995 0.5 1 1.77519e-08 -4.12242 
108 1 0.349992 0.550006 0.0499986 1.28897e-08 -4.12243 
109 1 0.399994 0.5 1 7.91716e-09 -4.12244 
110 1 0.449996 0.550004 0.0499987 2.24511e-08 -4.12246 
111 1 0.5 0.5 1 1.26218e-28 -4.12247 
112 1 0.550004 0.550004 0.0499987 2.24511e-08 -4.12246 
113 1 0.600006 0.5 1 7.91716e-09 -4.12244 
114 1 0.650008 0.550006 0.0499986 1.28897e-08 -4.12243 
115 1 0.700005 0.5 1 1.77519e-08 -4.12242 
116 1 0.750005 0.550005 0.0499988 4.96968e-08 -4.12241 
117 1 0.800002 0.5 1 5.64091e-08 -4.12242 
118 1 0.850001 0.550001 0.0499993 7.27277e-08 -4.12243 
119 1 0.9 0.5 1 2.44175e-08 -4.12244 
120 1 0.95 0.549999 0.05 2.32962e-08 -4.12244 
121 1 1 0.599996 1 2.97862e-08 -4.12246 
122 1 0.0499995 0.649997 0.0499995 3.30996e-07 -4.12245 
123 1 0.0999991 0.6 1 1.30051e-07 -4.12244 
124 1 0.149994 0.650007 0.0499975 5.36669e-07 -4.1224 
125 1 0.199995 0.600007 1 1.61076e-07 -4.12241 
126 1 0.249984 0.650019 0.049997 5.27969e-08 -4.12241 
127 1 0.299989 0.600012 1 2.09219e-08 -4.12243 
128 1 0.349983 0.650017 0.0499977 4.32809e-07 -4.12249 
129 1 0.39999 0.60001 1 1.1336e-07 -4.12246 
130 1 0.449994 0.650008 0.0499986 1.28897e-08 -4.12243 
131 1 0.5 0.600006 1 7.91716e-09 -4.12244 
132 1 0.550006 0.650008 0.0499986 1.28897e-08 -4.12243 
133 1 0.60001 0.60001 1 1.1336e-07 -4.12246 
134 1 0.650017 0.650017 0.0499977 4.32809e-07 -4.12249 
135 1 0.700011 0.600012 1 2.09219e-08 -4.12243 
136 1 0.750016 0.650019 0.049997 5.27969e-08 -4.12241 
137 1 0.800005 0.600007 1 1.61076e-07 -4.12241 
138 1 0.850006 0.650007 0.0499975 5.36669e-07 -4.1224 
139 1 0.900001 0.6 1 1.30051e-07 -4.12244 
140 1 0.950001 0.649997 0.0499995 3.30996e-07 -4.12245 
141 1 1 0.699986 1 8.63787e-07 -4.12273 
142 1 0.0500027 0.749991 0.0500027 1.55211e-05 -4.12229 
143 1 0.0999953 0.700003 1 1.86593e-06 -4.12243 
144 1 0.149972 0.750033 0.0499909 2.66217e-06 -4.12231 
145 1 0.199978 0.700026 1 2.62469e-07 -4.12234 
146 1 0.249953 0.750047 0.0499926 7.29368e-06 -4.12274 
147 1 0.299972 0.700028 1 1.72215e-06 -4.12256 
148 1 0.349981 0.750016 0.049997 5.27969e-08 -4.12241 
149 1 0.399988 0.700011 1 2.09219e-08 -4.12243 
150 1 0.449995 0.750005 0.0499988 4.96968e-08 -4.12241 
151 1 0.5 0.700005 1 1.77519e-08 -4.12242 
152 1 0.550005 0.750005 0.0499988 4.96968e-08 -4.12241 
153 1 0.600012 0.700011 1 2.09219e-08 -4.12243 
154 1 0.650019 0.750016 0.049997 5.27969e-08 -4.12241 
155 1 0.700028 0.700028 1 1.72215e-06 -4.12256 
156 1 0.750047 0.750047 0.0499926 7.29368e-06 -4.12274 
157 1 0.800022 0.700026 1 2.62469e-07 -4.12234 
158 1 0.850028 0.750033 0.0499909 2.66217e-06 -4.12231 
159 1 0.900005 0.700003 1 1.86593e-06 -4.12243 
160 1 0.949997 0.749991 0.0500027 1.55211e-05 -4.12229 
161 1 1 0.799901 1 0.000132528 -4.1269 
162 1 0.0500469 0.850003 0.0500469 0.00263939 -4.11242 
163 1 0.099972 0.80003 1 3.42459e-05 -4.12288 
164 1 0.149862 0.850138 0.049982 0.000618614 -4.12355 
165 1 0.199921 0.800079 1 3.36324e-05 -4.12315 
166 1 0.249967 0.850028 0.0499909 2.66217e-06 -4.12231 
167 1 0.299974 0.800022 1 2.62469e-07 -4.12234 
168 1 0.349993 0.850006 0.0499975 5.36669e-07 -4.1224 
169 1 0.399993 0.800005 1 1.61076e-07 -4.12241 
170 1 0.449999 0.850001 0.0499993 7.27277e-08 -4.12243 
171 1 0.5 0.800002 1 5.64091e-08 -4.12242 
172 1 0.550001 0.850001 0.0499993 7.27277e-08 -4.12243 
173 1 0.600007 0.800005 1 1.61076e-07 -4.12241 
174 1 0.650007 0.850006 0.0499975 5.36669e-07 -4.1224 
175 1 0.700026 0.800022 1 2.62469e-07 -4.12234 
176 1 0.750033 0.850028 0.0499909 2.66217e-06 -4.12231 
177 1 0.800079 0.800079 1 3.36324e-05 -4.12315 
178 1 0.850138 0.850138 0.049982 0.000618614 -4.12355 
179 1 0.900028 0.80003 1 3.42459e-05 -4.12288 
180 1 0.949953 0.850003 0.0500469 0.00263939 -4.11242 
181 1 1 0.898661 1 0.0710298 -3.98922 
182 1 0.0485331 0.951467 0.0485331 5.51672 -4.03246 
183 1 0.0997573 0.900243 1 0.00842485 -4.11984 
184 1 0.149997 0.949953 0.0500469 0.00263939 -4.11242 
185 1 0.19997 0.900028 1 3.42459e-05 -4.12288 
186 1 0.250009 0.949997 0.0500027 1.55211e-05 -4.12229 
187 1 0.299997 0.900005 1 1.86593e-06 -4.12243 
188 1 0.350003 0.950001 0.0499995 3.30996e-07 -4.12245 
189 1 0.4 0.900001 1 1.30051e-07 -4.12244 
190 1 0.450001 0.95 0.05 2.32962e-08 -4.12244 
191 1 0.5 0.9 1 2.44175e-08 -4.12244 
192 1 0.549999 0.95 0.05 2.32962e-08 -4.12244 
193 1 0.6 0.900001 1 1.30051e-07 -4.12244 
194 1 0.649997 0.950001 0.0499995 3.30996e-07 -4.12245 
195 1 0.700003 0.900005 1 1.86593e-06 -4.12243 
196 1 0.749991 0.949997 0.0500027 1.55211e-05 -4.12229 
197 1 0.80003 0.900028 1 3.42459e-05 -4.12288 
198 1 0.850003 0.949953 0.0500469 0.00263939 -4.11242 
199 1 0.900243 0.900243 1 0.00842485 -4.11984 
200 1 0.951467 0.951467 0.0485331 5.51672 -4.03246 
201 1 1 1 0.101339 0.0710298 -3.98922 
202 1 0.0500469 0.0500469 0.149997 0.00263939 -4.11242 
203 1 0.0997573 1 0.0997573 0.00842485 -4.11984 
204 1 0.149862 0.049982 0.149862 0.000618614 -4.12355 
205 1 0.19997 1 0.099972 3.42459e-05 -4.12288 
206 1 0.249967 0.0499909 0.149972 2.66217e-06 -4.12231 
207 1 0.299997 1 0.0999953 1.86593e-06 -4.12243 
208 1 0.349993 0.0499975 0.149994 5.36669e-07 -4.1224 
209 1 0.4 1 0.0999991 1.30051e-07 -4.12244 
210 1 0.449999 0.0499993 0.149999 7.27277e-08 -4.12243 
211 1 0.5 1 0.1 2.44175e-08 -4.12244 
212 1 0.550001 0.0499993 0.149999 7.27277e-08 -4.12243 
213 1 0.6 1 0.0999991 1.30051e-07 -4.12244 
214 1 0.650007 0.0499975 0.149994 5.36669e-07 -4.1224 
215 1 0.700003 1 0.0999953 1.86593e-06 -4.12243 
216 1 0.750033 0.0499909 0.149972 2.66217e-06 -4.12231 
217 1 0.80003 1 0.099972 3.42459e-05 -4.12288 
218 1 0.850138 0.049982 0.149862 0.000618614 -4.12355 
219 1 0.900243 1 0.0997573 0.00842485 -4.11984 
220 1 0.949953 0.0500469 0.149997 0.00263939 -4.11242 
221 1 1 0.0997573 0.0997573 0.00842485 -4.11984 
222 1 0.049982 0.149862 0.149862 0.000618614 -4.12355 
223 1 0.0994219 0.0994219 0.0994219 0.00943752 -4.12882 
224 1 0.149761 0.149761 0.149761 0.0011464 -4.12606 
225 1 0.199952 0.0999657 0.0999657 9.20488e-05 -4.11975 
226 1 0.249952 0.149962 0.149962 4.90694e-06 -4.12171 
227 1 0.299992 0.0999932 0.0999932 3.31747e-06 -4.12231 
228 1 0.349988 0.149991 0.149991 7.11678e-07 -4.12234 
229 1 0.399998 0.0999982 0.0999982 1.85683e-07 -4.12243 
230 1 0.449997 0.149997 0.149997 7.96518e-08 -4.12242 
231 1 0.5 0.0999994 0.0999994 3.21969e-08 -4.12243 
232 1 0.550003 0.149997 0.149997 7.96518e-08 -4.12242 
233 1 0.600002 0.0999982 0.0999982 1.85683e-07 -4.12243 
234 1 0.650012 0.149991 0.149991 7.11678e-07 -4.12234 
235 1 0.700008 0.0999932 0.0999932 3.31747e-06 -4.12231 
236 1 0.750048 0.149962 0.149962 4.90694e-06 -4.12171 
237 1 0.800048 0.0999657 0.0999657 9.20488e-05 -4.11975 
238 1 0.850239 0.149761 0.149761 0.0011464 -4.12606 
239 1 0.900578 0.0994219 0.0994219 0.00943752 -4.12882 
240 1 0.950018 0.149862 0.149862 0.000618614 -4.12355 
241 1 1 0.19997 0.099972 3.42459e-05 -4.12288 
242 1 0.0499909 0.249967 0.149972 2.66217e-06 -4.12231 
243 1 0.0999657 0.199952 0.0999657 9.20488e-05 -4.11975 
244 1 0.149962 0.249952 0.149962 4.90694e-06 -4.12171 
245 1 0.199919 0.199919 0.0999721 8.17368e-05 -4.12273 
246 1 0.249951 0.249951 0.149975 1.17902e-05 -4.12254 
247 1 0.299972 0.199976 0.0999889 5.91662e-07 -4.12237 
248 1 0.34998 0.249982 0.14999 1.91895e-07 -4.1224 
249 1 0.399992 0.199994 0.0999964 1.52345e-07 -4.12241 
250 1 0.449995 0.249994 0.149996 4.26124e-08 -4.12241 
251 1 0.5 0.199997 0.0999983 5.07611e-08 -4.12242 
252 1 0.550005 0.249994 0.149996 4.26124e-08 -4.12241 
253 1 0.600008 0.199994 0.0999964 1.52345e-07 -4.12241 
254 1 0.65002 0.249982 0.14999 1.91895e-07 -4.1224 
255 1 0.700028 0.199976 0.0999889 5.91662e-07 -4.12237 
256 1 0.750049 0.249951 0.149975 1.17902e-05 -4.12254 
257 1 0.800081 0.199919 0.0999721 8.17368e-05 -4.12273 
258 1 0.850038 0.249952 0.149962 4.90694e-06 -4.12171 
259 1 0.900034 0.199952 0.0999657 9.20488e-05 -4.11975 
260 1 0.950009 0.249967 0.149972 2.66217e-06 -4.12231 
261 1 1 0.299997 0.0999953 1.86593e-06 -4.12243 
262 1 0.0499975 0.349993 0.149994 5.36669e-07 -4.1224 
263 1 0.0999932 0.299992 0.0999932 3.31747e-06 -4.12231 
264 1 0.149991 0.349988 0.149991 7.11678e-07 -4.12234 
265 1 0.199976 0.299972 0.0999889 5.91662e-07 -4.12237 
266 1 0.249982 0.34998 0.14999 1.91895e-07 -4.1224 
267 1 0.299971 0.299971 0.0999917 1.69273e-06 -4.12256 
268 1 0.349983 0.349983 0.149993 4.24591e-07 -4.12248 
269 1 0.399988 0.299988 0.0999961 3.3203e-08 -4.12242 
270 1 0.449994 0.349992 0.149996 1.8579e-08 -4.12243 
271 1 0.5 0.299994 0.0999976 1.7483e-08 -4.12242 
272 1 0.550006 0.349992 0.149996 1.8579e-08 -4.12243 
273 1 0.600012 0.299988 0.0999961 3.3203e-08 -4.12242 
274 1 0.650017 0.349983 0.149993 4.24591e-07 -4.12248 
275 1 0.700029 0.299971 0.0999917 1.69273e-06 -4.12256 
276 1 0.750018 0.34998 0.14999 1.91895e-07 -4.1224 
277 1 0.800024 0.299972 0.0999889 5.91662e-07 -4.12237 
278 1 0.850009 0.349988 0.149991 7.11678e-07 -4.12234 
279 1 0.900007 0.299992 0.0999932 3.31747e-06 -4.12231 
280 1 0.950003 0.349993 0.149994 5.36669e-07 -4.1224 
281 1 1 0.4 0.0999991 1.30051e-07 -4.12244 
282 1 0.0499993 0.449999 0.149999 7.27277e-08 -4.12243 
283 1 0.0999982 0.399998 0.0999982 1.85683e-07 -4.12243 
284 1 0.149997 0.449997 0.149997 7.96518e-08 -4.12242 
285 1 0.199994 0.399992 0.0999964 1.52345e-07 -4.12241 
286 1 0.249994 0.449995 0.149996 4.26124e-08 -4.12241 
287 1 0.299988 0.399988 0.0999961 3.3203e-08 -4.12242 
288 1 0.349992 0.449994 0.149996 1.8579e-08 -4.12243 
289 1 0.39999 0.39999 0.0999968 1.11532e-07 -4.12246 
290 1 0.449996 0.449996 0.149996 2.14617e-08 -4.12246 
291 1 0.5 0.399994 0.0999974 8.57893e-09 -4.12244 
292 1 0.550004 0.449996 0.149996 2.14617e-08 -4.12246 
293 1 0.60001 0.39999 0.0999968 1.11532e-07 -4.12246 
294 1 0.650008 0.449994 0.149996 1.8579e-08 -4.12243 
295 1 0.700012 0.399988 0.0999961 3.3203e-08 -4.12242 
296 1 0.750006 0.449995 0.149996 4.26124e-08 -4.12241 
297 1 0.800006 0.399992 0.0999964 1.52345e-07 -4.12241 
298 1 0.850003 0.449997 0.149997 7.96518e-08 -4.12242 
299 1 0.900002 0.399998 0.0999982 1.85683e-07 -4.12243 
300 1 0.950001 0.449999 0.149999 7.27277e-08 -4.12243 
301 1 1 0.5 0.1 2.44175e-08 -4.12244 
302 1 0.0499993 0.550001 0.149999 7.27277e-08 -4.12243 
303 1 0.0999994 0.5 0.0999994 3.21969e-08 -4.12243 
304 1 0.149997 0.550003 0.149997 7.96518e-08 -4.12242 
305 1 0.199997 0.5 0.0999983 5.07611e-08 -4.12242 
306 1 0.249994 0.550005 0.149996 4.26124e-08 -4.12241 
307 1 0.299994 0.5 0.0999976 1.7483e-08 -4.12242 
308 1 0.349992 0.550006 0.149996 1.8579e-08 -4.12243 
309 1 0.399994 0.5 0.0999974 8.57893e-09 -4.12244 
310 1 0.449996 0.550004 0.149996 2.14617e-08 -4.12246 
311 1 0.5 0.5 0.0999974 3.09529e-11 -4.12247 
312 1 0.550004 0.550004 0.149996 2.14617e-08 -4.12246 
313 1 0.600006 0.5 0.0999974 8.57893e-09 -4.12244 
314 1 0.650008 0.550006 0.149996 1.8579e-08 -4.12243 
315 1 0.700006 0.5 0.0999976 1.7483e-08 -4.12242 
316 1 0.750006 0.550005 0.149996 4.26124e-08 -4.12241 
317 1 0.800003 0.5 0.0999983 5.07611e-08 -4.12242 
318 1 0.850003 0.550003 0.149997 7.96518e-08 -4.12242 
319 1 0.900001 0.5 0.0999994 3.21969e-08 -4.12243 
320 1 0.950001 0.550001 0.149999 7.27277e-08 -4.12243 
321 1 1 0.6 0.0999991 1.30051e-07 -4.12244 
322 1 0.0499975 0.650007 0.149994 5.36669e-07 -4.1224 
323 1 0.0999982 0.600002 0.0999982 1.85683e-07 -4.12243 
324 1 0.149991 0.650012 0.149991 7.11678e-07 -4.12234 
325 1 0.199994 0.600008 0.0999964 1.52345e-07 -4.12241 
326 1 0.249982 0.65002 0.14999 1.91895e-07 -4.1224 
327 1 0.299988 0.600012 0.0999961 3.3203e-08 -4.12242 
328 1 0.349983 0.650017 0.149993 4.24591e-07 -4.12248 
329 1 0.39999 0.60001 0.0999968 1.11532e-07 -4.12246 
330 1 0.449994 0.650008 0.149996 1.8579e-08 -4.12243 
331 1 0.5 0.600006 0.0999974 8.57893e-09 -4.12244 
332 1 0.550006 0.650008 0.149996 1.8579e-08 -4.12243 
333 1 0.60001 0.60001 0.0999968 1.11532e-07 -4.12246 
334 1 0.650017 0.650017 0.149993 4.24591e-07 -4.12248 
335 1 0.700012 0.600012 0.0999961 3.3203e-08 -4.12242 
336 1 0.750018 0.65002 0.14999 1.91895e-07 -4.1224 
337 1 0.800006 0.600008 0.0999964 1.52345e-07 -4.12241 
338 1 0.850009 0.650012 0.149991 7.11678e-07 -4.12234 
339 1 0.900002 0.600002 0.0999982 1.85683e-07 -4.12243 
340 1 0.950003 0.650007 0.149994 5.36669e-07 -4.1224 
341 1 1 0.700003 0.0999953 1.86593e-06 -4.12243 
342 1 0.0499909 0.750033 0.149972 2.66217e-06 -4.12231 
343 1 0.0999932 0.700008 0.0999932 3.31747e-06 -4.12231 
344 1 0.149962 0.750048 0.149962 4.90694e-06 -4.12171 
345 1 0.199976 0.700028 0.0999889 5.91662e-07 -4.12237 
346 1 0.249951 0.750049 0.149975 1.17902e-05 -4.12254 
347 1 0.299971 0.700029 0.0999917 1.69273e-06 -4.12256 
348 1 0.34998 0.750018 0.14999 1.91895e-07 -4.1224 
349 1 0.399988 0.700012 0.0999961 3.3203e-08 -4.12242 
350 1 0.449995 0.750006 0.149996 4.26124e-08 -4.12241 
351 1 0.5 0.700006 0.0999976 1.7483e-08 -4.12242 
352 1 0.550005 0.750006 0.149996 4.26124e-08 -4.12241 
353 1 0.600012 0.700012 0.0999961 3.3203e-08 -4.12242 
354 1 0.65002 0.750018 0.14999 1.91895e-07 -4.1224 
355 1 0.700029 0.700029 0.0999917 1.69273e-06 -4.12256 
356 1 0.750049 0.750049 0.149975 1.17902e-05 -4.12254 
357 1 0.800024 0.700028 0.0999889 5.91662e-07 -4.12237 
358 1 0.850038 0.750048 0.149962 4.90694e-06 -4.12171 
359 1 0.900007 0.700008 0.0999932 3.31747e-06 -4.12231 
360 1 0.950009 0.750033 0.149972 2.66217e-06 -4.12231 
361 1 1 0.80003 0.099972 3.42459e-05 -4.12288 
362 1 0.049982 0.850138 0.149862 0.000618614 -4.12355 
363 1 0.0999657 0.800048 0.0999657 9.20488e-05 -4.11975 
364 1 0.149761 0.850239 0.149761 0.0011464 -4.12606 
365 1 0.199919 0.800081 0.0999721 8.17368e-05 -4.12273 
366 1 0.249952 0.850038 0.149962 4.90694e-06 -4.12171 
367 1 0.299972 0.800024 0.0999889 5.91662e-07 -4.12237 
368 1 0.349988 0.850009 0.149991 7.11678e-07 -4.12234 
369 1 0.399992 0.800006 0.0999964 1.52345e-07 -4.12241 
370 1 0.449997 0.850003 0.149997 7.96518e-08 -4.12242 
371 1 0.5 0.800003 0.0999983 5.07611e-08 -4.12242 
372 1 0.550003 0.850003 0.149997 7.96518e-08 -4.12242 
373 1 0.600008 0.800006 0.0999964 1.52345e-07 -4.12241 
374 1 0.650012 0.850009 0.149991 7.11678e-07 -4.12234 
375 1 0.700028 0.800024 0.0999889 5.91662e-07 -4.12237 
376 1 0.750048 0.850038 0.149962 4.90694e-06 -4.12171 
377 1 0.800081 0.800081 0.0999721 8.17368e-05 -4.12273 
378 1 0.850239 0.850239 0.149761 0.0011464 -4.12606 
379 1 0.900034 0.800048 0.0999657 9.20488e-05 -4.11975 
380 1 0.950018 0.850138 0.149862 0.000618614 -4.12355 
381 1 1 0.900243 0.0997573 0.00842485 -4.11984 
382 1 0.0500469 0.949953 0.149997 0.00263939 -4.11242 
383 1 0.0994219 0.900578 0.0994219 0.00943752 -4.12882 
384 1 0.149862 0.950018 0.149862 0.000618614 -4.12355 
385 1 0.199952 0.900034 0.0999657 9.20488e-05 -4.11975 
386 1 0.249967 0.950009 0.149972 2.66217e-06 -4.12231 
387 1 0.299992 0.900007 0.0999932 3.31747e-06 -4.12231 
388 1 0.349993 0.950003 0.149994 5.36669e-07 -4.1224 
389 1 0.399998 0.900002 0.0999982 1.85683e-07 -4.12243 
390 1 0.449999 0.950001 0.149999 7.27277e-08 -4.12243 
391 1 0.5 0.900001 0.0999994 3.21969e-08 -4.12243 
392 1 0.550001 0.950001 0.149999 7.27277e-08 -4.12243 
393 1 0.600002 0.900002 0.0999982 1.85683e-07 -4.12243 
394 1 0.650007 0.950003 0.149994 5.36669e-07 -4.1224 
395 1 0.700008 0.900007 0.0999932 3.31747e-06 -4.12231 
396 1 0.750033 0.950009 0.149972 2.66217e-06 -4.12231 
397 1 0.800048 0.900034 0.0999657 9.20488e-05 -4.11975 
398 1 0.850138 0.950018 0.149862 0.000618614 -4.12355 
399 1 0.900578 0.900578 0.0994219 0.00943752 -4.12882 
400 1 0.949953 0.949953 0.149997 0.00263939 -4.11242 
401 1 1 1 0.200099 0.000132528 -4.1269 
402 1 0.0500027 0.0500027 0.250009 1.55211e-05 -4.12229 
403 1 0.099972 1 0.19997 3.42459e-05 -4.12288 
404 1 0.149972 0.0499909 0.249967 2.66217e-06 -4.12231 
405 1 0.199921 1 0.199921 3.36324e-05 -4.12315 
406 1 0.249953 0.0499926 0.249953 7.29368e-06 -4.12274 
407 1 0.299974 1 0.199978 2.62469e-07 -4.12234 
408 1 0.349981 0.049997 0.249984 5.27969e-08 -4.12241 
409 1 0.399993 1 0.199995 1.61076e-07 -4.12241 
410 1 0.449995 0.0499988 0.249995 4.96968e-08 -4.12241 
411 1 0.5 1 0.199998 5.64091e-08 -4.12242 
412 1 0.550005 0.0499988 0.249995 4.96968e-08 -4.12241 
413 1 0.600007 1 0.199995 1.61076e-07 -4.12241 
414 1 0.650019 0.049997 0.249984 5.27969e-08 -4.12241 
415 1 0.700026 1 0.199978 2.62469e-07 -4.12234 
416 1 0.750047 0.0499926 0.249953 7.29368e-06 -4.12274 
417 1 0.800079 1 0.199921 3.36324e-05 -4.12315 
418 1 0.850028 0.0499909 0.249967 2.66217e-06 -4.12231 
419 1 0.900028 1 0.19997 3.42459e-05 -4.12288 
420 1 0.949997 0.0500027 0.250009 1.55211e-05 -4.12229 
421 1 1 0.099972 0.19997 3.42459e-05 -4.12288 
422 1 0.0499909 0.149972 0.249967 2.66217e-06 -4.12231 
423 1 0.0999657 0.0999657 0.199952 9.20488e-05 -4.11975 
424 1 0.149962 0.149962 0.249952 4.90694e-06 -4.12171 
425 1 0.199919 0.0999721 0.199919 8.17368e-05 -4.12273 
426 1 0.249951 0.149975 0.249951 1.17902e-05 -4.12254 
427 1 0.299972 0.0999889 0.199976 5.91662e-07 -4.12237 
428 1 0.34998 0.14999 0.249982 1.91895e-07 -4.1224 
429 1 0.399992 0.0999964 0.199994 1.52345e-07 -4.12241 
430 1 0.449995 0.149996 0.249994 4.26124e-08 -4.12241 
431 1 0.5 0.0999983 0.199997 5.07611e-08 -4.12242 
432 1 0.550005 0.149996 0.249994 4.26124e-08 -4.12241 
433 1 0.600008 0.0999964 0.199994 1.52345e-07 -4.12241 
434 1 0.65002 0.14999 0.249982 1.91895e-07 -4.1224 
435 1 0.700028 0.0999889 0.199976 5.91662e-07 -4.12237 
436 1 0.750049 0.149975 0.249951 1.17902e-05 -4.12254 
437 1 0.800081 0.0999721 0.199919 8.17368e-05 -4.12273 
438 1 0.850038 0.149962 0.249952 4.90694e-06 -4.12171 
439 1 0.900034 0.0999657 0.199952 9.20488e-05 -4.11975 
440 1 0.950009 0.149972 0.249967 2.66217e-06 -4.12231 
441 1 1 0.199921 0.199921 3.36324e-05 -4.12315 
442 1 0.0499926 0.249953 0.249953 7.29368e-06 -4.12274 
443 1 0.0999721 0.199919 0.199919 8.17368e-05 -4.12273 
444 1 0.149975 0.249951 0.249951 1.17902e-05 -4.12254 
445 1 0.199892 0.199892 0.199892 0.000147232 -4.12376 
446 1 0.249947 0.249947 0.249947 2.07265e-05 -4.12291 
447 1 0.299965 0.199971 0.199971 4.06232e-07 -4.12224 
448 1 0.349977 0.249981 0.249981 1.68587e-07 -4.12239 
449 1 0.399989 0.199991 0.199991 1.23975e-07 -4.12239 
450 1 0.449994 0.249992 0.249992 1.97117e-08 -4.12241 
451 1 0.5 0.199996 0.199996 3.92387e-08 -4.12241 
452 1 0.550006 0.249992 0.249992 1.97117e-08 -4.12241 
453 1 0.600011 0.199991 0.199991 1.23975e-07 -4.12239 
454 1 0.650023 0.249981 0.249981 1.68587e-07 -4.12239 
455 1 0.700035 0.199971 0.199971 4.06232e-07 -4.12224 
456 1 0.750053 0.249947 0.249947 2.07265e-05 -4.12291 
457 1 0.800108 0.199892 0.199892 0.000147232 -4.12376 
458 1 0.850025 0.249951 0.249951 1.17902e-05 -4.12254 
459 1 0.900028 0.199919 0.199919 8.17368e-05 -4.12273 
460 1 0.950007 0.249953 0.249953 7.29368e-06 -4.12274 
461 1 1 0.299974 0.199978 2.62469e-07 -4.12234 
462 1 0.049997 0.349981 0.249984 5.27969e-08 -4.12241 
463 1 0.0999889 0.299972 0.199976 5.91662e-07 -4.12237 
464 1 0.14999 0.34998 0.249982 1.91895e-07 -4.1224 
465 1 0.199971 0.299965 0.199971 4.06232e-07 -4.12224 
466 1 0.249981 0.349977 0.249981 1.68587e-07 -4.12239 
467 1 0.299971 0.299971 0.199982 1.99975e-06 -4.12248 
468 1 0.349983 0.349983 0.249987 4.0567e-07 -4.12245 
469 1 0.399987 0.299987 0.199991 6.81269e-08 -4.12242 
470 1 0.449994 0.349991 0.249993 2.36555e-08 -4.12243 
471 1 0.5 0.299993 0.199995 1.41571e-08 -4.12242 
472 1 0.550006 0.349991 0.249993 2.36555e-08 -4.12243 
473 1 0.600013 0.299987 0.199991 6.81269e-08 -4.12242 
474 1 0.650017 0.349983 0.249987 4.0567e-07 -4.12245 
475 1 0.700029 0.299971 0.199982 1.99975e-06 -4.12248 
476 1 0.750019 0.349977 0.249981 1.68587e-07 -4.12239 
477 1 0.800029 0.299965 0.199971 4.06232e-07 -4.12224 
478 1 0.85001 0.34998 0.249982 1.91895e-07 -4.1224 
479 1 0.900011 0.299972 0.199976 5.91662e-07 -4.12237 
480 1 0.950003 0.349981 0.249984 5.27969e-08 -4.12241 
481 1 1 0.399993 0.199995 1.61076e-07 -4.12241 
482 1 0.0499988 0.449995 0.249995 4.96968e-08 -4.12241 
483 1 0.0999964 0.399992 0.199994 1.52345e-07 -4.12241 
484 1 0.149996 0.449995 0.249994 4.26124e-08 -4.12241 
485 1 0.199991 0.399989 0.199991 1.23975e-07 -4.12239 
486 1 0.249992 0.449994 0.249992 1.97117e-08 -4.12241 
487 1 0.299987 0.399987 0.199991 6.81269e-08 -4.12242 
488 1 0.349991 0.449994 0.249993 2.36555e-08 -4.12243 
489 1 0.39999 0.39999 0.199993 1.07195e-07 -4.12245 
490 1 0.449996 0.449996 0.249994 1.90106e-08 -4.12245 
491 1 0.5 0.399994 0.199995 9.99345e-09 -4.12244 
492 1 0.550004 0.449996 0.249994 1.90106e-08 -4.12245 
493 1 0.60001 0.39999 0.199993 1.07195e-07 -4.12245 
494 1 0.650009 0.449994 0.249993 2.36555e-08 -4.12243 
495 1 0.700013 0.399987 0.199991 6.81269e-08 -4.12242 
496 1 0.750008 0.449994 0.249992 1.97117e-08 -4.12241 
497 1 0.800009 0.399989 0.199991 1.23975e-07 -4.12239 
498 1 0.850004 0.449995 0.249994 4.26124e-08 -4.12241 
499 1 0.900004 0.399992 0.199994 1.52345e-07 -4.12241 
500 1 0.950001 0.449995 0.249995 4.96968e-08 -4.12241 
501 1 1 0.5 0.199998 5.64091e-08 -4.12242 
502 1 0.0499988 0.550005 0.249995 4.96968e-08 -4.12241 
503 1 0.0999983 0.5 0.199997 5.07611e-08 -4.12242 
504 1 0.149996 0.550005 0.249994 4.26124e-08 -4.12241 
505 1 0.199996 0.5 0.199996 3.92387e-08 -4.12241 
506 1 0.249992 0.550006 0.249992 1.97117e-08 -4.12241 
507 1 0.299993 0.5 0.199995 1.41571e-08 -4.12242 
508 1 0.349991 0.550006 0.249993 2.36555e-08 -4.12243 
509 1 0.399994 0.5 0.199995 9.99345e-09 -4.12244 
510 1 0.449996 0.550004 0.249994 1.90106e-08 -4.12245 
511 1 0.5 0.5 0.199995 1.33812e-10 -4.12246 
512 1 0.550004 0.550004 0.249994 1.90106e-08 -4.12245 
513 1 0.600006 0.5 0.199995 9.99345e-09 -4.12244 
514 1 0.650009 0.550006 0.249993 2.36555e-08 -4.12243 
515 1 0.700007 0.5 0.199995 1.41571e-08 -4.12242 
516 1 0.750008 0.550006 0.249992 1.97117e-08 -4.12241 
517 1 0.800004 0.5 0.199996 3.92387e-08 -4.12241 
518 1 0.850004 0.550005 0.249994 4.26124e-08 -4.12241 
519 1 0.900002 0.5 0.199997 5.07611e-08 -4.12242 
520 1 0.950001 0.550005 0.249995 4.96968e-08 -4.12241 
521 1 1 0.600007 0.199995 1.61076e-07 -4.12241 
522 1 0.049997 0.650019 0.249984 5.27969e-08 -4.12241 
523 1 0.0999964 0.600008 0.199994 1.52345e-07 -4.12241 
524 1 0.14999 0.65002 0.249982 1.91895e-07 -4.1224 
525 1 0.199991 0.600011 0.199991 1.23975e-07 -4.12239 
526 1 0.249981 0.650023 0.249981 1.68587e-07 -4.12239 
527 1 0.299987 0.600013 0.199991 6.81269e-08 -4.12242 
528 1 0.349983 0.650017 0.249987 4.0567e-07 -4.12245 
529 1 0.39999 0.60001 0.199993 1.07195e-07 -4.12245 
530 1 0.449994 0.650009 0.249993 2.36555e-08 -4.12243 
531 1 0.5 0.600006 0.199995 9.99345e-09 -4.12244 
532 1 0.550006 0.650009 0.249993 2.36555e-08 -4.12243 
533 1 0.60001 0.60001 0.199993 1.07195e-07 -4.12245 
534 1 0.650017 0.650017 0.249987 4.0567e-07 -4.12245 
535 1 0.700013 0.600013 0.199991 6.81269e-08 -4.12242 
536 1 0.750019 0.650023 0.249981 1.68587e-07 -4.12239 
537 1 0.800009 0.600011 0.199991 1.23975e-07 -4.12239 
538 1 0.85001 0.65002 0.249982 1.91895e-07 -4.1224 
539 1 0.900004 0.600008 0.199994 1.52345e-07 -4.12241 
540 1 0.950003 0.650019 0.249984 5.27969e-08 -4.12241 
541 1 1 0.700026 0.199978 2.62469e-07 -4.12234 
542 1 0.0499926 0.750047 0.249953 7.29368e-06 -4.12274 
543 1 0.0999889 0.700028 0.199976 5.91662e-07 -4.12237 
544 1 0.149975 0.750049 0.249951 1.17902e-05 -4.12254 
545 1 0.199971 0.700035 0.199971 4.06232e-07 -4.12224 
546 1 0.249947 0.750053 0.249947 2.07265e-05 -4.12291 
547 1 0.299971 0.700029 0.199982 1.99975e-06 -4.12248 
548 1 0.349977 0.750019 0.249981 1.68587e-07 -4.12239 
549 1 0.399987 0.700013 0.199991 6.81269e-08 -4.12242 
550 1 0.449994 0.750008 0.249992 1.97117e-08 -4.12241 
551 1 0.5 0.700007 0.199995 1.41571e-08 -4.12242 
552 1 0.550006 0.750008 0.249992 1.97117e-08 -4.12241 
553 1 0.600013 0.700013 0.199991 6.81269e-08 -4.12242 
554 1 0.650023 0.750019 0.249981 1.68587e-07 -4.12239 
555 1 0.700029 0.700029 0.199982 1.99975e-06 -4.12248 
556 1 0.750053 0.750053 0.249947 2.07265e-05 -4.12291 
557 1 0.800029 0.700035 0.199971 4.06232e-07 -4.12224 
558 1 0.850025 0.750049 0.249951 1.17902e-05 -4.12254 
559 1 0.900011 0.700028 0.199976 5.91662e-07 -4.12237 
560 1 0.950007 0.750047 0.249953 7.29368e-06 -4.12274 
561 1 1 0.800079 0.199921 3.36324e-05 -4.12315 
562 1 0.0499909 0.850028 0.249967 2.66217e-06 -4.12231 
563 1 0.0999721 0.800081 0.199919 8.17368e-05 -4.12273 
564 1 0.149962 0.850038 0.249952 4.90694e-06 -4.12171 
565 1 0.199892 0.800108 0.199892 0.000147232 -4.12376 
566 1 0.249951 0.850025 0.249951 1.17902e-05 -4.12254 
567 1 0.299965 0.800029 0.199971 4.06232e-07 -4.12224 
568 1 0.34998 0.85001 0.249982 1.91895e-07 -4.1224 
569 1 0.399989 0.800009 0.199991 1.23975e-07 -4.12239 
570 1 0.449995 0.850004 0.249994 4.26124e-08 -4.12241 
571 1 0.5 0.800004 0.199996 3.92387e-08 -4.12241 
572 1 0.550005 0.850004 0.249994 4.26124e-08 -4.12241 