LAMMPS (11 Nov 2013)
WARNING: OMP_NUM_THREADS environment is not set. (../comm.cpp:100)
  using 1 OpenMP thread(s) per MPI task
WARNING: OMP_NUM_THREADS environment is not set. (../comm.cpp:100)
  using 1 OpenMP thread(s) per MPI task
Lattice spacing in x,y,z = 2.855 2.855 2.855
Created orthogonal box = (0 0 0) to (28.55 28.55 28.55)
  1 by 1 by 1 MPI processor grid
Lattice spacing in x,y,z = 2.855 2.855 2.855
Created 2000 atoms
WARNING: Resetting reneighboring criteria during minimization (../min.cpp:173)
Setting up minimization ...
Memory usage per processor = 5.12946 Mbytes
Step PotEng Lx Ly Lz Press eatoms 
       0   -8244.8687        28.55        28.55        28.55    606.57679   -8244.8687 
       1   -8244.8687        28.55        28.55        28.55    606.57679   -8244.8687 
Loop time of 0.0459199 on 1 procs (1 MPI x 1 OpenMP) for 1 steps with 2000 atoms

Minimization stats:
  Stopping criterion = linesearch alpha is zero
  Energy initial, next-to-last, final = 
        -8244.86869887     -8244.86869887     -8244.86869887
  Force two-norm initial, final = 6.88278e-13 6.88278e-13
  Force max component initial, final = 1.9082e-14 1.9082e-14
  Final line search alpha, max atom move = 0.5 9.54098e-15
  Iterations, force evaluations = 1 2

Pair  time (%) = 0.032373 (70.4987)
Neigh time (%) = 0 (0)
Comm  time (%) = 6.17504e-05 (0.134474)
Outpt time (%) = 0 (0)
Other time (%) = 0.0134852 (29.3668)

Nlocal:    2000 ave 2000 max 2000 min
Histogram: 1 0 0 0 0 0 0 0 0 0
Nghost:    2941 ave 2941 max 2941 min
Histogram: 1 0 0 0 0 0 0 0 0 0
Neighs:    58000 ave 58000 max 58000 min
Histogram: 1 0 0 0 0 0 0 0 0 0
FullNghs:  116000 ave 116000 max 116000 min
Histogram: 1 0 0 0 0 0 0 0 0 0

Total # of neighbors = 116000
Ave neighs/atom = 58
Neighbor list builds = 0
Dangerous builds = 0
WARNING: No fixes defined, atoms won't move (../verlet.cpp:54)
Setting up run ...
Memory usage per processor = 4.44274 Mbytes
Step PotEng Lx Ly Lz Press eatoms 
       1   -8244.8687        28.55        28.55        28.55    606.57679   -8244.8687 
Loop time of 0 on 1 procs (1 MPI x 1 OpenMP) for 0 steps with 2000 atoms

Pair  time (%) = 0 (0)
Neigh time (%) = 0 (0)
Comm  time (%) = 0 (0)
Outpt time (%) = 0 (0)
Other time (%) = 0 (0)

Nlocal:    2000 ave 2000 max 2000 min
Histogram: 1 0 0 0 0 0 0 0 0 0
Nghost:    2941 ave 2941 max 2941 min
Histogram: 1 0 0 0 0 0 0 0 0 0
Neighs:    58000 ave 58000 max 58000 min
Histogram: 1 0 0 0 0 0 0 0 0 0
FullNghs:  116000 ave 116000 max 116000 min
Histogram: 1 0 0 0 0 0 0 0 0 0

Total # of neighbors = 116000
Ave neighs/atom = 58
Neighbor list builds = 0
Dangerous builds = 0
Deleted 1 atoms, new total = 1999
WARNING: Resetting reneighboring criteria during minimization (../min.cpp:173)
Setting up minimization ...
Memory usage per processor = 5.12937 Mbytes
Step PotEng Lx Ly Lz Press eatoms 
       0   -8238.9104        28.55        28.55        28.55    515.19326   -8238.9104 
Loop time of 2.59876e-05 on 1 procs (1 MPI x 1 OpenMP) for 0 steps with 1999 atoms

Minimization stats:
  Stopping criterion = max iterations
  Energy initial, next-to-last, final = 
        -8238.91035574     -8244.86869887     -8238.91035574
  Force two-norm initial, final = 1.13478 1.13478
  Force max component initial, final = 0.218804 0.218804
  Final line search alpha, max atom move = 0.5 0.109402
  Iterations, force evaluations = 0 0

Pair  time (%) = 0 (0)
Neigh time (%) = 0 (0)
Comm  time (%) = 0 (0)
Outpt time (%) = 0 (0)
Other time (%) = 2.59876e-05 (100)

Nlocal:    1999 ave 1999 max 1999 min
Histogram: 1 0 0 0 0 0 0 0 0 0
Nghost:    2934 ave 2934 max 2934 min
Histogram: 1 0 0 0 0 0 0 0 0 0
Neighs:    57942 ave 57942 max 57942 min
Histogram: 1 0 0 0 0 0 0 0 0 0
FullNghs:  115884 ave 115884 max 115884 min
Histogram: 1 0 0 0 0 0 0 0 0 0

Total # of neighbors = 115884
Ave neighs/atom = 57.971
Neighbor list builds = 0
Dangerous builds = 0
WARNING: No fixes defined, atoms won't move (../verlet.cpp:54)
Setting up run ...
Memory usage per processor = 4.44265 Mbytes
Step PotEng Lx Ly Lz Press eatoms 
       0   -8238.9104        28.55        28.55        28.55    515.19326   -8238.9104 
Loop time of 1.19209e-06 on 1 procs (1 MPI x 1 OpenMP) for 0 steps with 1999 atoms

Pair  time (%) = 0 (0)
Neigh time (%) = 0 (0)
Comm  time (%) = 0 (0)
Outpt time (%) = 0 (0)
Other time (%) = 1.19209e-06 (100)

Nlocal:    1999 ave 1999 max 1999 min
Histogram: 1 0 0 0 0 0 0 0 0 0
Nghost:    2934 ave 2934 max 2934 min
Histogram: 1 0 0 0 0 0 0 0 0 0
Neighs:    57942 ave 57942 max 57942 min
Histogram: 1 0 0 0 0 0 0 0 0 0
FullNghs:  115884 ave 115884 max 115884 min
Histogram: 1 0 0 0 0 0 0 0 0 0

Total # of neighbors = 115884
Ave neighs/atom = 57.971
Neighbor list builds = 0
Dangerous builds = 0
WARNING: Resetting reneighboring criteria during minimization (../min.cpp:173)
Setting up minimization ...
Memory usage per processor = 5.12937 Mbytes
Step PotEng Lx Ly Lz Press eatoms 
       0   -8238.9104        28.55        28.55        28.55    515.19326   -8238.9104 
      10   -8239.0347        28.55        28.55        28.55    401.19156   -8239.0347 
      20   -8239.0348        28.55        28.55        28.55    400.81812   -8239.0348 
      23   -8239.0348        28.55        28.55        28.55    400.81754   -8239.0348 
Loop time of 0.968047 on 1 procs (1 MPI x 1 OpenMP) for 23 steps with 1999 atoms

Minimization stats:
  Stopping criterion = linesearch alpha is zero
  Energy initial, next-to-last, final = 
        -8238.91035574     -8239.03475912     -8239.03475912
  Force two-norm initial, final = 1.13478 0.000184811
  Force max component initial, final = 0.218804 1.41704e-05
  Final line search alpha, max atom move = 0.25 3.54261e-06
  Iterations, force evaluations = 23 89

Pair  time (%) = 0.943073 (97.4202)
Neigh time (%) = 0.00340199 (0.351429)
Comm  time (%) = 0.00197816 (0.204345)
Outpt time (%) = 0.00014782 (0.0152699)
Other time (%) = 0.0194459 (2.00878)

Nlocal:    1999 ave 1999 max 1999 min
Histogram: 1 0 0 0 0 0 0 0 0 0
Nghost:    2934 ave 2934 max 2934 min
Histogram: 1 0 0 0 0 0 0 0 0 0
Neighs:    57942 ave 57942 max 57942 min
Histogram: 1 0 0 0 0 0 0 0 0 0
FullNghs:  115884 ave 115884 max 115884 min
Histogram: 1 0 0 0 0 0 0 0 0 0

Total # of neighbors = 115884
Ave neighs/atom = 57.971
Neighbor list builds = 1
Dangerous builds = 1
All done
Energy of perfect system = -8244.8686988773388293
Energy of unrelaxed defected system = -8238.9103557478301809
Energy of relaxed defected system = -8239.0347591221106995
Unrelaxed vacancy formation energy = 1.8359087800708948635
Relaxed vacancy formation energy = 1.7115054057903762441
